 Entering Gaussian System, Link 0=g09
 Input=cdim2popt.gjf
 Output=cdim2popt.log
 Initial command:
 /usr/local/bin/g09/l1.exe "/tmp/Gau-29084.inp" -scrdir="/tmp/"
 Default is to use a total of  12 processors:
                               12 via shared-memory
                                1 via Linda
 Entering Link 1 = /usr/local/bin/g09/l1.exe PID=     29085.
  
 Copyright (c) 1988,1990,1992,1993,1995,1998,2003,2009,2013,
            Gaussian, Inc.  All Rights Reserved.
  
 This is part of the Gaussian(R) 09 program.  It is based on
 the Gaussian(R) 03 system (copyright 2003, Gaussian, Inc.),
 the Gaussian(R) 98 system (copyright 1998, Gaussian, Inc.),
 the Gaussian(R) 94 system (copyright 1995, Gaussian, Inc.),
 the Gaussian 92(TM) system (copyright 1992, Gaussian, Inc.),
 the Gaussian 90(TM) system (copyright 1990, Gaussian, Inc.),
 the Gaussian 88(TM) system (copyright 1988, Gaussian, Inc.),
 the Gaussian 86(TM) system (copyright 1986, Carnegie Mellon
 University), and the Gaussian 82(TM) system (copyright 1983,
 Carnegie Mellon University). Gaussian is a federally registered
 trademark of Gaussian, Inc.
  
 This software contains proprietary and confidential information,
 including trade secrets, belonging to Gaussian, Inc.
  
 This software is provided under written license and may be
 used, copied, transmitted, or stored only in accord with that
 written license.
  
 The following legend is applicable only to US Government
 contracts under FAR:
  
                    RESTRICTED RIGHTS LEGEND
  
 Use, reproduction and disclosure by the US Government is
 subject to restrictions as set forth in subparagraphs (a)
 and (c) of the Commercial Computer Software - Restricted
 Rights clause in FAR 52.227-19.
  
 Gaussian, Inc.
 340 Quinnipiac St., Bldg. 40, Wallingford CT 06492
  
  
 ---------------------------------------------------------------
 Warning -- This program may not be used in any manner that
 competes with the business of Gaussian, Inc. or will provide
 assistance to any competitor of Gaussian, Inc.  The licensee
 of this program is prohibited from giving any competitor of
 Gaussian, Inc. access to this program.  By using this program,
 the user acknowledges that Gaussian, Inc. is engaged in the
 business of creating and licensing software in the field of
 computational chemistry and represents and warrants to the
 licensee that it is not a competitor of Gaussian, Inc. and that
 it will not use this program in any manner prohibited above.
 ---------------------------------------------------------------
  

 Cite this work as:
 Gaussian 09, Revision D.01,
 M. J. Frisch, G. W. Trucks, H. B. Schlegel, G. E. Scuseria, 
 M. A. Robb, J. R. Cheeseman, G. Scalmani, V. Barone, B. Mennucci, 
 G. A. Petersson, H. Nakatsuji, M. Caricato, X. Li, H. P. Hratchian, 
 A. F. Izmaylov, J. Bloino, G. Zheng, J. L. Sonnenberg, M. Hada, 
 M. Ehara, K. Toyota, R. Fukuda, J. Hasegawa, M. Ishida, T. Nakajima, 
 Y. Honda, O. Kitao, H. Nakai, T. Vreven, J. A. Montgomery, Jr., 
 J. E. Peralta, F. Ogliaro, M. Bearpark, J. J. Heyd, E. Brothers, 
 K. N. Kudin, V. N. Staroverov, T. Keith, R. Kobayashi, J. Normand, 
 K. Raghavachari, A. Rendell, J. C. Burant, S. S. Iyengar, J. Tomasi, 
 M. Cossi, N. Rega, J. M. Millam, M. Klene, J. E. Knox, J. B. Cross, 
 V. Bakken, C. Adamo, J. Jaramillo, R. Gomperts, R. E. Stratmann, 
 O. Yazyev, A. J. Austin, R. Cammi, C. Pomelli, J. W. Ochterski, 
 R. L. Martin, K. Morokuma, V. G. Zakrzewski, G. A. Voth, 
 P. Salvador, J. J. Dannenberg, S. Dapprich, A. D. Daniels, 
 O. Farkas, J. B. Foresman, J. V. Ortiz, J. Cioslowski, 
 and D. J. Fox, Gaussian, Inc., Wallingford CT, 2013.
 
 ******************************************
 Gaussian 09:  ES64L-G09RevD.01 24-Apr-2013
                18-Jun-2015 
 ******************************************
 %chk=cdim2popt.chk
 -----------------
 # b3lyp/3-21g opt
 -----------------
 1/14=-1,18=20,19=15,26=3,38=1/1,3;
 2/9=110,12=2,17=6,18=5,40=1/2;
 3/5=5,11=2,16=1,25=1,30=1,71=1,74=-5/1,2,3;
 4//1;
 5/5=2,38=5/2;
 6/7=2,8=2,9=2,10=2,28=1/1;
 7//1,2,3,16;
 1/14=-1,18=20,19=15,26=3/3(2);
 2/9=110/2;
 99//99;
 2/9=110/2;
 3/5=5,11=2,16=1,25=1,30=1,71=1,74=-5/1,2,3;
 4/5=5,16=3,69=1/1;
 5/5=2,38=5/2;
 7//1,2,3,16;
 1/14=-1,18=20,19=15,26=3/3(-5);
 2/9=110/2;
 6/7=2,8=2,9=2,10=2,19=2,28=1/1;
 99/9=1/99;
 -------------------
 Title Card Required
 -------------------
 Symbolic Z-matrix:
 Charge =  2 Multiplicity = 1
 C                    -2.79      0.74056   0.00002 
 H                    -3.7005    1.31612   0. 
 C                    -1.48945   1.14897  -0.00002 
 H                    -1.09553   2.15075  -0.00005 
 C                    -1.50657  -1.10545   0.00004 
 H                    -1.22203  -2.1445   0. 
 N                    -2.77246  -0.65629  -0.00001 
 H                    -3.60484  -1.25033  -0.0003 
 Cd                    1.42717  -0.00089  -0.00001 
 N                    -0.67971  -0.01999   0.00008 
 

 GradGradGradGradGradGradGradGradGradGradGradGradGradGradGradGradGradGrad
 Berny optimization.
 Initialization pass.
                           ----------------------------
                           !    Initial Parameters    !
                           ! (Angstroms and Degrees)  !
 --------------------------                            --------------------------
 ! Name  Definition              Value          Derivative Info.                !
 --------------------------------------------------------------------------------
 ! R1    R(1,2)                  1.0772         estimate D2E/DX2                !
 ! R2    R(1,3)                  1.3632         estimate D2E/DX2                !
 ! R3    R(1,7)                  1.397          estimate D2E/DX2                !
 ! R4    R(3,4)                  1.0764         estimate D2E/DX2                !
 ! R5    R(3,10)                 1.422          estimate D2E/DX2                !
 ! R6    R(5,6)                  1.0773         estimate D2E/DX2                !
 ! R7    R(5,7)                  1.3432         estimate D2E/DX2                !
 ! R8    R(5,10)                 1.3645         estimate D2E/DX2                !
 ! R9    R(7,8)                  1.0226         estimate D2E/DX2                !
 ! R10   R(9,10)                 2.107          estimate D2E/DX2                !
 ! A1    A(2,1,3)              130.2682         estimate D2E/DX2                !
 ! A2    A(2,1,7)              123.0172         estimate D2E/DX2                !
 ! A3    A(3,1,7)              106.7146         estimate D2E/DX2                !
 ! A4    A(1,3,4)              128.8996         estimate D2E/DX2                !
 ! A5    A(1,3,10)             107.2765         estimate D2E/DX2                !
 ! A6    A(4,3,10)             123.8239         estimate D2E/DX2                !
 ! A7    A(6,5,7)              124.8506         estimate D2E/DX2                !
 ! A8    A(6,5,10)             127.3867         estimate D2E/DX2                !
 ! A9    A(7,5,10)             107.7628         estimate D2E/DX2                !
 ! A10   A(1,7,5)              110.2549         estimate D2E/DX2                !
 ! A11   A(1,7,8)              124.7948         estimate D2E/DX2                !
 ! A12   A(5,7,8)              124.9503         estimate D2E/DX2                !
 ! A13   A(3,10,5)             107.9912         estimate D2E/DX2                !
 ! A14   A(3,10,9)             124.1909         estimate D2E/DX2                !
 ! A15   A(5,10,9)             127.8179         estimate D2E/DX2                !
 ! D1    D(2,1,3,4)              0.0022         estimate D2E/DX2                !
 ! D2    D(2,1,3,10)           179.998          estimate D2E/DX2                !
 ! D3    D(7,1,3,4)            179.9979         estimate D2E/DX2                !
 ! D4    D(7,1,3,10)            -0.0063         estimate D2E/DX2                !
 ! D5    D(2,1,7,5)           -179.9992         estimate D2E/DX2                !
 ! D6    D(2,1,7,8)              0.0173         estimate D2E/DX2                !
 ! D7    D(3,1,7,5)              0.0047         estimate D2E/DX2                !
 ! D8    D(3,1,7,8)           -179.9788         estimate D2E/DX2                !
 ! D9    D(1,3,10,5)             0.0059         estimate D2E/DX2                !
 ! D10   D(1,3,10,9)           179.9974         estimate D2E/DX2                !
 ! D11   D(4,3,10,5)          -179.9981         estimate D2E/DX2                !
 ! D12   D(4,3,10,9)            -0.0065         estimate D2E/DX2                !
 ! D13   D(6,5,7,1)           -179.9978         estimate D2E/DX2                !
 ! D14   D(6,5,7,8)             -0.0143         estimate D2E/DX2                !
 ! D15   D(10,5,7,1)            -0.001          estimate D2E/DX2                !
 ! D16   D(10,5,7,8)           179.9825         estimate D2E/DX2                !
 ! D17   D(6,5,10,3)           179.9937         estimate D2E/DX2                !
 ! D18   D(6,5,10,9)             0.0026         estimate D2E/DX2                !
 ! D19   D(7,5,10,3)            -0.0029         estimate D2E/DX2                !
 ! D20   D(7,5,10,9)          -179.9941         estimate D2E/DX2                !
 --------------------------------------------------------------------------------
 Trust Radius=3.00D-01 FncErr=1.00D-07 GrdErr=1.00D-06
 Number of steps in this run=     55 maximum allowed number of steps=    100.
 GradGradGradGradGradGradGradGradGradGradGradGradGradGradGradGradGradGrad

                          Input orientation:                          
 ---------------------------------------------------------------------
 Center     Atomic      Atomic             Coordinates (Angstroms)
 Number     Number       Type             X           Y           Z
 ---------------------------------------------------------------------
      1          6           0       -2.789995    0.740564    0.000018
      2          1           0       -3.700496    1.316116    0.000000
      3          6           0       -1.489449    1.148972   -0.000020
      4          1           0       -1.095529    2.150748   -0.000045
      5          6           0       -1.506570   -1.105452    0.000040
      6          1           0       -1.222031   -2.144495   -0.000002
      7          7           0       -2.772461   -0.656288   -0.000010
      8          1           0       -3.604843   -1.250326   -0.000303
      9         48           0        1.427171   -0.000888   -0.000007
     10          7           0       -0.679713   -0.019988    0.000078
 ---------------------------------------------------------------------
                    Distance matrix (angstroms):
                    1          2          3          4          5
     1  C    0.000000
     2  H    1.077159   0.000000
     3  C    1.363164   2.217356   0.000000
     4  H    2.204503   2.735409   1.076442   0.000000
     5  C    2.248323   3.267614   2.254489   3.282041   0.000000
     6  H    3.283607   4.256597   3.304306   4.297105   1.077299
     7  N    1.396962   2.179823   2.214742   3.269794   1.343216
     8  H    2.151190   2.568224   3.198675   4.226578   2.103268
     9  Cd   4.281850   5.294098   3.135100   3.315653   3.134788
    10  N    2.243152   3.303075   1.422020   2.210203   1.364524
                    6          7          8          9         10
     6  H    0.000000
     7  N    2.149091   0.000000
     8  H    2.545060   1.022615   0.000000
     9  Cd   3.407832   4.250466   5.184811   0.000000
    10  N    2.192633   2.187344   3.173345   2.106971   0.000000
 Stoichiometry    C3H4CdN2(2+)
 Framework group  C1[X(C3H4CdN2)]
 Deg. of freedom    24
 Full point group                 C1      NOp   1
 Largest Abelian subgroup         C1      NOp   1
 Largest concise Abelian subgroup C1      NOp   1
                         Standard orientation:                         
 ---------------------------------------------------------------------
 Center     Atomic      Atomic             Coordinates (Angstroms)
 Number     Number       Type             X           Y           Z
 ---------------------------------------------------------------------
      1          6           0        2.789995    0.740564   -0.000018
      2          1           0        3.700496    1.316116    0.000000
      3          6           0        1.489449    1.148972    0.000020
      4          1           0        1.095529    2.150748    0.000045
      5          6           0        1.506570   -1.105452   -0.000040
      6          1           0        1.222031   -2.144495    0.000002
      7          7           0        2.772461   -0.656288    0.000010
      8          1           0        3.604843   -1.250326    0.000303
      9         48           0       -1.427171   -0.000888    0.000007
     10          7           0        0.679713   -0.019988   -0.000078
 ---------------------------------------------------------------------
 Rotational constants (GHZ):      9.0663773      0.9790032      0.8835914
 Standard basis: 3-21G (6D, 7F)
 There are    92 symmetry adapted cartesian basis functions of A   symmetry.
 There are    92 symmetry adapted basis functions of A   symmetry.
    92 basis functions,   174 primitive gaussians,    92 cartesian basis functions
    41 alpha electrons       41 beta electrons
       nuclear repulsion energy       445.2963453473 Hartrees.
 NAtoms=   10 NActive=   10 NUniq=   10 SFac= 1.00D+00 NAtFMM=   60 NAOKFM=F Big=F
 Integral buffers will be    131072 words long.
 Raffenetti 2 integral format.
 Two-electron integral symmetry is turned on.
 One-electron integrals computed using PRISM.
 NBasis=    92 RedAO= T EigKep=  1.24D-03  NBF=    92
 NBsUse=    92 1.00D-06 EigRej= -1.00D+00 NBFU=    92
 Defaulting to unpruned grid for atomic number  48.
 ExpMin= 3.60D-02 ExpMax= 1.17D+04 ExpMxC= 1.17D+04 IAcc=3 IRadAn=         5 AccDes= 0.00D+00
 Harris functional with IExCor=  402 and IRadAn=       5 diagonalized for initial guess.
 HarFok:  IExCor=  402 AccDes= 0.00D+00 IRadAn=         5 IDoV= 1 UseB2=F ITyADJ=14
 ICtDFT=  3500011 ScaDFX=  1.000000  1.000000  1.000000  1.000000
 Defaulting to unpruned grid for atomic number  48.
 Defaulting to unpruned grid for atomic number  48.
 Defaulting to unpruned grid for atomic number  48.
 Defaulting to unpruned grid for atomic number  48.
 Defaulting to unpruned grid for atomic number  48.
 Defaulting to unpruned grid for atomic number  48.
 Defaulting to unpruned grid for atomic number  48.
 Defaulting to unpruned grid for atomic number  48.
 Defaulting to unpruned grid for atomic number  48.
 Defaulting to unpruned grid for atomic number  48.
 Defaulting to unpruned grid for atomic number  48.
 Defaulting to unpruned grid for atomic number  48.
 FoFCou: FMM=F IPFlag=           0 FMFlag=      100000 FMFlg1=           0
         NFxFlg=           0 DoJE=T BraDBF=F KetDBF=T FulRan=T
         wScrn=  0.000000 ICntrl=     500 IOpCl=  0 I1Cent=   200000004 NGrid=           0
         NMat0=    1 NMatS0=      1 NMatT0=    0 NMatD0=    1 NMtDS0=    0 NMtDT0=    0
 Petite list used in FoFCou.
 Keep R1 ints in memory in canonical form, NReq=10113249.
 Requested convergence on RMS density matrix=1.00D-08 within 128 cycles.
 Requested convergence on MAX density matrix=1.00D-06.
 Requested convergence on             energy=1.00D-06.
 No special actions if energy rises.
 Defaulting to unpruned grid for atomic number  48.
 Defaulting to unpruned grid for atomic number  48.
 Defaulting to unpruned grid for atomic number  48.
 Defaulting to unpruned grid for atomic number  48.
 Defaulting to unpruned grid for atomic number  48.
 Defaulting to unpruned grid for atomic number  48.
 Defaulting to unpruned grid for atomic number  48.
 Defaulting to unpruned grid for atomic number  48.
 Defaulting to unpruned grid for atomic number  48.
 Defaulting to unpruned grid for atomic number  48.
 Defaulting to unpruned grid for atomic number  48.
 Defaulting to unpruned grid for atomic number  48.
 EnCoef did   100 forward-backward iterations
 EnCoef did   100 forward-backward iterations
 SCF Done:  E(RB3LYP) =  -5667.02262287     A.U. after   19 cycles
            NFock= 19  Conv=0.11D-08     -V/T= 2.0048

 **********************************************************************

            Population analysis using the SCF density.

 **********************************************************************

 Orbital symmetries:
       Occupied  (A) (A) (A) (A) (A) (A) (A) (A) (A) (A) (A) (A)
                 (A) (A) (A) (A) (A) (A) (A) (A) (A) (A) (A) (A)
                 (A) (A) (A) (A) (A) (A) (A) (A) (A) (A) (A) (A)
                 (A) (A) (A) (A) (A)
       Virtual   (A) (A) (A) (A) (A) (A) (A) (A) (A) (A) (A) (A)
                 (A) (A) (A) (A) (A) (A) (A) (A) (A) (A) (A) (A)
                 (A) (A) (A) (A) (A) (A) (A) (A) (A) (A) (A) (A)
                 (A) (A) (A) (A) (A) (A) (A) (A) (A) (A) (A) (A)
                 (A) (A) (A)
 The electronic state is 1-A.
 Alpha  occ. eigenvalues -- -940.39822-138.08569-128.30897-128.30875-128.30810
 Alpha  occ. eigenvalues --  -26.43347 -22.25532 -22.25472 -22.25055 -15.52093
 Alpha  occ. eigenvalues --  -15.52091 -15.51809 -15.51766 -15.51715 -14.67277
 Alpha  occ. eigenvalues --  -14.66461 -10.55923 -10.49846 -10.49434  -4.27955
 Alpha  occ. eigenvalues --   -2.93021  -2.92885  -2.92660  -1.38447  -1.23919
 Alpha  occ. eigenvalues --   -1.10519  -1.03505  -1.02314  -1.02236  -1.02234
 Alpha  occ. eigenvalues --   -1.02077  -0.96210  -0.94626  -0.91126  -0.80001
 Alpha  occ. eigenvalues --   -0.78565  -0.78416  -0.77052  -0.72984  -0.65225
 Alpha  occ. eigenvalues --   -0.57969
 Alpha virt. eigenvalues --   -0.53839  -0.38325  -0.37740  -0.32581  -0.29141
 Alpha virt. eigenvalues --   -0.27892  -0.21488  -0.19006  -0.18319  -0.16541
 Alpha virt. eigenvalues --   -0.15438  -0.14259  -0.12332  -0.11294  -0.09741
 Alpha virt. eigenvalues --   -0.07255   0.05014   0.05532   0.11670   0.27239
 Alpha virt. eigenvalues --    0.36214   0.37536   0.38749   0.43356   0.43563
 Alpha virt. eigenvalues --    0.48148   0.50172   0.52126   0.59706   0.67849
 Alpha virt. eigenvalues --    0.69221   0.71440   0.75432   0.79080   0.80707
 Alpha virt. eigenvalues --    0.80741   0.82709   0.87720   0.93900   0.97403
 Alpha virt. eigenvalues --    0.98214   1.06762   1.21377   1.31813   1.37951
 Alpha virt. eigenvalues --    1.40588   1.50148   2.31958   2.38038   4.24280
 Alpha virt. eigenvalues --  207.55101
          Condensed to atoms (all electrons):
               1          2          3          4          5          6
     1  C    4.904089   0.364299   0.567272  -0.018871  -0.120464   0.001919
     2  H    0.364299   0.337037  -0.021160  -0.001014   0.002255  -0.000018
     3  C    0.567272  -0.021160   5.008639   0.370731  -0.131022   0.001818
     4  H   -0.018871  -0.001014   0.370731   0.364552   0.002224  -0.000020
     5  C   -0.120464   0.002255  -0.131022   0.002224   4.787796   0.362696
     6  H    0.001919  -0.000018   0.001818  -0.000020   0.362696   0.345164
     7  N    0.261884  -0.023643  -0.054820   0.002384   0.353866  -0.024613
     8  H   -0.014364  -0.000893   0.002999  -0.000032  -0.020111  -0.000939
     9  Cd  -0.000152   0.000116  -0.015121   0.000597  -0.015303  -0.000608
    10  N   -0.057089   0.002167   0.258830  -0.025836   0.344582  -0.025197
               7          8          9         10
     1  C    0.261884  -0.014364  -0.000152  -0.057089
     2  H   -0.023643  -0.000893   0.000116   0.002167
     3  C   -0.054820   0.002999  -0.015121   0.258830
     4  H    0.002384  -0.000032   0.000597  -0.025836
     5  C    0.353866  -0.020111  -0.015303   0.344582
     6  H   -0.024613  -0.000939  -0.000608  -0.025197
     7  N    6.935501   0.321206   0.001626  -0.089643
     8  H    0.321206   0.281647   0.000034   0.002231
     9  Cd   0.001626   0.000034  46.359516   0.242539
    10  N   -0.089643   0.002231   0.242539   7.061376
 Mulliken charges:
               1
     1  C    0.111477
     2  H    0.340853
     3  C    0.011834
     4  H    0.305285
     5  C    0.433480
     6  H    0.339797
     7  N   -0.683747
     8  H    0.428224
     9  Cd   1.426756
    10  N   -0.713959
 Sum of Mulliken charges =   2.00000
 Mulliken charges with hydrogens summed into heavy atoms:
               1
     1  C    0.452330
     3  C    0.317119
     5  C    0.773278
     7  N   -0.255523
     9  Cd   1.426756
    10  N   -0.713959
 Electronic spatial extent (au):  <R**2>=           1092.8595
 Charge=              2.0000 electrons
 Dipole moment (field-independent basis, Debye):
    X=             -1.0487    Y=             -1.2465    Z=              0.0008  Tot=              1.6290
 Quadrupole moment (field-independent basis, Debye-Ang):
   XX=              8.7704   YY=            -30.8237   ZZ=            -45.8039
   XY=             -3.6025   XZ=              0.0021   YZ=             -0.0007
 Traceless Quadrupole moment (field-independent basis, Debye-Ang):
   XX=             31.3895   YY=             -8.2046   ZZ=            -23.1849
   XY=             -3.6025   XZ=              0.0021   YZ=             -0.0007
 Octapole moment (field-independent basis, Debye-Ang**2):
  XXX=              1.4580  YYY=             -5.7619  ZZZ=              0.0010  XYY=             -6.4820
  XXY=            -10.6837  XXZ=              0.0086  XZZ=            -35.6127  YZZ=             -1.5571
  YYZ=              0.0017  XYZ=             -0.0030
 Hexadecapole moment (field-independent basis, Debye-Ang**3):
 XXXX=           -415.3541 YYYY=           -128.2905 ZZZZ=            -37.9236 XXXY=            -38.4551
 XXXZ=              0.0314 YYYX=            -15.4087 YYYZ=             -0.0014 ZZZX=              0.0008
 ZZZY=             -0.0006 XXYY=           -113.0798 XXZZ=           -169.4797 YYZZ=            -39.5517
 XXYZ=             -0.0114 YYXZ=              0.0046 ZZXY=             -3.9362
 N-N= 4.452963453473D+02 E-N=-1.431235267841D+04  KE= 5.640070927761D+03
 Calling FoFJK, ICntrl=      2127 FMM=F ISym2X=0 I1Cent= 0 IOpClX= 0 NMat=1 NMatS=1 NMatT=0.
 Defaulting to unpruned grid for atomic number  48.
 Defaulting to unpruned grid for atomic number  48.
 Defaulting to unpruned grid for atomic number  48.
 Defaulting to unpruned grid for atomic number  48.
 Defaulting to unpruned grid for atomic number  48.
 Defaulting to unpruned grid for atomic number  48.
 Defaulting to unpruned grid for atomic number  48.
 Defaulting to unpruned grid for atomic number  48.
 Defaulting to unpruned grid for atomic number  48.
 Defaulting to unpruned grid for atomic number  48.
 Defaulting to unpruned grid for atomic number  48.
 Defaulting to unpruned grid for atomic number  48.
 ***** Axes restored to original set *****
 -------------------------------------------------------------------
 Center     Atomic                   Forces (Hartrees/Bohr)
 Number     Number              X              Y              Z
 -------------------------------------------------------------------
      1        6           0.000038169   -0.000147932   -0.000013796
      2        1           0.000184468   -0.000132297   -0.000000273
      3        6          -0.000119833   -0.000113918    0.000014780
      4        1          -0.000066737   -0.000224976    0.000002189
      5        6           0.000114786    0.000069910   -0.000002294
      6        1          -0.000053902    0.000215567    0.000001426
      7        7           0.000157158    0.000176784   -0.000007476
      8        1           0.000081121    0.000094893    0.000012535
      9       48          -0.000188075   -0.000030806    0.000000815
     10        7          -0.000147154    0.000092774   -0.000007906
 -------------------------------------------------------------------
 Cartesian Forces:  Max     0.000224976 RMS     0.000110080

 GradGradGradGradGradGradGradGradGradGradGradGradGradGradGradGradGradGrad
 Berny optimization.
 FormGI is forming the generalized inverse of G from B-inverse, IUseBI=4.
 Internal  Forces:  Max     0.000349888 RMS     0.000120073
 Search for a local minimum.
 Step number   1 out of a maximum of   55
 All quantities printed in internal units (Hartrees-Bohrs-Radians)
 Mixed Optimization -- En-DIIS/RFO-DIIS
 Second derivative matrix not updated -- first step.
 ITU=  0
     Eigenvalues ---    0.01731   0.01921   0.01954   0.02080   0.02208
     Eigenvalues ---    0.02283   0.02328   0.13767   0.16000   0.16000
     Eigenvalues ---    0.16000   0.16000   0.22000   0.23160   0.25000
     Eigenvalues ---    0.36323   0.36340   0.36428   0.39159   0.43658
     Eigenvalues ---    0.43924   0.47279   0.51649   0.54692
 RFO step:  Lambda=-1.71254338D-06 EMin= 1.73083622D-02
 Linear search not attempted -- first point.
 Iteration  1 RMS(Cart)=  0.00048797 RMS(Int)=  0.00000005
 Iteration  2 RMS(Cart)=  0.00000006 RMS(Int)=  0.00000002
 Variable       Old X    -DE/DX   Delta X   Delta X   Delta X     New X
                                 (Linear)    (Quad)   (Total)
    R1        2.03554  -0.00023   0.00000  -0.00062  -0.00062   2.03491
    R2        2.57601  -0.00028   0.00000  -0.00054  -0.00054   2.57546
    R3        2.63988  -0.00035   0.00000  -0.00076  -0.00076   2.63911
    R4        2.03418  -0.00023   0.00000  -0.00064  -0.00064   2.03354
    R5        2.68723  -0.00027   0.00000  -0.00063  -0.00063   2.68660
    R6        2.03580  -0.00022   0.00000  -0.00061  -0.00061   2.03519
    R7        2.53831  -0.00020   0.00000  -0.00036  -0.00036   2.53795
    R8        2.57858  -0.00032   0.00000  -0.00060  -0.00060   2.57797
    R9        1.93246  -0.00012   0.00000  -0.00028  -0.00028   1.93219
   R10        3.98160  -0.00019   0.00000  -0.00137  -0.00137   3.98023
    A1        2.27361   0.00001   0.00000   0.00003   0.00003   2.27364
    A2        2.14706   0.00001   0.00000   0.00005   0.00005   2.14710
    A3        1.86252  -0.00001   0.00000  -0.00008  -0.00008   1.86244
    A4        2.24972   0.00003   0.00000   0.00017   0.00017   2.24990
    A5        1.87233   0.00002   0.00000   0.00008   0.00008   1.87241
    A6        2.16113  -0.00004   0.00000  -0.00026  -0.00026   2.16088
    A7        2.17905   0.00000   0.00000  -0.00001  -0.00001   2.17905
    A8        2.22332   0.00002   0.00000   0.00011   0.00011   2.22342
    A9        1.88082  -0.00002   0.00000  -0.00010  -0.00010   1.88072
   A10        1.92431   0.00002   0.00000   0.00010   0.00010   1.92441
   A11        2.17808  -0.00005   0.00000  -0.00031  -0.00031   2.17777
   A12        2.18079   0.00003   0.00000   0.00022   0.00022   2.18101
   A13        1.88480   0.00000   0.00000   0.00000   0.00000   1.88480
   A14        2.16754   0.00010   0.00000   0.00039   0.00039   2.16793
   A15        2.23084  -0.00010   0.00000  -0.00039  -0.00039   2.23046
    D1        0.00004   0.00000   0.00000  -0.00010  -0.00010  -0.00007
    D2        3.14156   0.00000   0.00000   0.00003   0.00003   3.14159
    D3        3.14156   0.00000   0.00000   0.00020   0.00020  -3.14143
    D4       -0.00011   0.00001   0.00000   0.00033   0.00033   0.00022
    D5       -3.14158   0.00000   0.00000   0.00000   0.00000  -3.14158
    D6        0.00030   0.00000   0.00000  -0.00016  -0.00016   0.00014
    D7        0.00008  -0.00001   0.00000  -0.00027  -0.00027  -0.00019
    D8       -3.14122  -0.00001   0.00000  -0.00043  -0.00043   3.14153
    D9        0.00010  -0.00001   0.00000  -0.00028  -0.00028  -0.00018
   D10        3.14155   0.00000   0.00000  -0.00005  -0.00005   3.14149
   D11       -3.14156   0.00000   0.00000  -0.00016  -0.00016   3.14147
   D12       -0.00011   0.00000   0.00000   0.00007   0.00007  -0.00004
   D13       -3.14155   0.00000   0.00000  -0.00002  -0.00002  -3.14158
   D14       -0.00025   0.00000   0.00000   0.00013   0.00013  -0.00012
   D15       -0.00002   0.00000   0.00000   0.00010   0.00010   0.00008
   D16        3.14129   0.00001   0.00000   0.00025   0.00025   3.14154
   D17        3.14148   0.00000   0.00000   0.00023   0.00023  -3.14147
   D18        0.00004   0.00000   0.00000   0.00000   0.00000   0.00004
   D19       -0.00005   0.00000   0.00000   0.00011   0.00011   0.00006
   D20       -3.14149   0.00000   0.00000  -0.00013  -0.00013   3.14157
         Item               Value     Threshold  Converged?
 Maximum Force            0.000350     0.000450     YES
 RMS     Force            0.000120     0.000300     YES
 Maximum Displacement     0.001712     0.001800     YES
 RMS     Displacement     0.000488     0.001200     YES
 Predicted change in Energy=-8.562716D-07
 Optimization completed.
    -- Stationary point found.
                           ----------------------------
                           !   Optimized Parameters   !
                           ! (Angstroms and Degrees)  !
 --------------------------                            --------------------------
 ! Name  Definition              Value          Derivative Info.                !
 --------------------------------------------------------------------------------
 ! R1    R(1,2)                  1.0772         -DE/DX =   -0.0002              !
 ! R2    R(1,3)                  1.3632         -DE/DX =   -0.0003              !
 ! R3    R(1,7)                  1.397          -DE/DX =   -0.0003              !
 ! R4    R(3,4)                  1.0764         -DE/DX =   -0.0002              !
 ! R5    R(3,10)                 1.422          -DE/DX =   -0.0003              !
 ! R6    R(5,6)                  1.0773         -DE/DX =   -0.0002              !
 ! R7    R(5,7)                  1.3432         -DE/DX =   -0.0002              !
 ! R8    R(5,10)                 1.3645         -DE/DX =   -0.0003              !
 ! R9    R(7,8)                  1.0226         -DE/DX =   -0.0001              !
 ! R10   R(9,10)                 2.107          -DE/DX =   -0.0002              !
 ! A1    A(2,1,3)              130.2682         -DE/DX =    0.0                 !
 ! A2    A(2,1,7)              123.0172         -DE/DX =    0.0                 !
 ! A3    A(3,1,7)              106.7146         -DE/DX =    0.0                 !
 ! A4    A(1,3,4)              128.8996         -DE/DX =    0.0                 !
 ! A5    A(1,3,10)             107.2765         -DE/DX =    0.0                 !
 ! A6    A(4,3,10)             123.8239         -DE/DX =    0.0                 !
 ! A7    A(6,5,7)              124.8506         -DE/DX =    0.0                 !
 ! A8    A(6,5,10)             127.3867         -DE/DX =    0.0                 !
 ! A9    A(7,5,10)             107.7628         -DE/DX =    0.0                 !
 ! A10   A(1,7,5)              110.2549         -DE/DX =    0.0                 !
 ! A11   A(1,7,8)              124.7948         -DE/DX =   -0.0001              !
 ! A12   A(5,7,8)              124.9503         -DE/DX =    0.0                 !
 ! A13   A(3,10,5)             107.9912         -DE/DX =    0.0                 !
 ! A14   A(3,10,9)             124.1909         -DE/DX =    0.0001              !
 ! A15   A(5,10,9)             127.8179         -DE/DX =   -0.0001              !
 ! D1    D(2,1,3,4)              0.0022         -DE/DX =    0.0                 !
 ! D2    D(2,1,3,10)           179.998          -DE/DX =    0.0                 !
 ! D3    D(7,1,3,4)           -180.0021         -DE/DX =    0.0                 !
 ! D4    D(7,1,3,10)            -0.0063         -DE/DX =    0.0                 !
 ! D5    D(2,1,7,5)           -179.9992         -DE/DX =    0.0                 !
 ! D6    D(2,1,7,8)              0.0173         -DE/DX =    0.0                 !
 ! D7    D(3,1,7,5)              0.0047         -DE/DX =    0.0                 !
 ! D8    D(3,1,7,8)            180.0212         -DE/DX =    0.0                 !
 ! D9    D(1,3,10,5)             0.0059         -DE/DX =    0.0                 !
 ! D10   D(1,3,10,9)           179.9974         -DE/DX =    0.0                 !
 ! D11   D(4,3,10,5)           180.0019         -DE/DX =    0.0                 !
 ! D12   D(4,3,10,9)            -0.0065         -DE/DX =    0.0                 !
 ! D13   D(6,5,7,1)           -179.9978         -DE/DX =    0.0                 !
 ! D14   D(6,5,7,8)             -0.0143         -DE/DX =    0.0                 !
 ! D15   D(10,5,7,1)            -0.001          -DE/DX =    0.0                 !
 ! D16   D(10,5,7,8)           179.9825         -DE/DX =    0.0                 !
 ! D17   D(6,5,10,3)          -180.0063         -DE/DX =    0.0                 !
 ! D18   D(6,5,10,9)             0.0026         -DE/DX =    0.0                 !
 ! D19   D(7,5,10,3)            -0.0029         -DE/DX =    0.0                 !
 ! D20   D(7,5,10,9)           180.0059         -DE/DX =    0.0                 !
 --------------------------------------------------------------------------------
 GradGradGradGradGradGradGradGradGradGradGradGradGradGradGradGradGradGrad

                          Input orientation:                          
 ---------------------------------------------------------------------
 Center     Atomic      Atomic             Coordinates (Angstroms)
 Number     Number       Type             X           Y           Z
 ---------------------------------------------------------------------
      1          6           0       -2.789995    0.740564    0.000018
      2          1           0       -3.700496    1.316116    0.000000
      3          6           0       -1.489449    1.148972   -0.000020
      4          1           0       -1.095529    2.150748   -0.000045
      5          6           0       -1.506570   -1.105452    0.000040
      6          1           0       -1.222031   -2.144495   -0.000002
      7          7           0       -2.772461   -0.656288   -0.000010
      8          1           0       -3.604843   -1.250326   -0.000303
      9         48           0        1.427171   -0.000888   -0.000007
     10          7           0       -0.679713   -0.019988    0.000078
 ---------------------------------------------------------------------
                    Distance matrix (angstroms):
                    1          2          3          4          5
     1  C    0.000000
     2  H    1.077159   0.000000
     3  C    1.363164   2.217356   0.000000
     4  H    2.204503   2.735409   1.076442   0.000000
     5  C    2.248323   3.267614   2.254489   3.282041   0.000000
     6  H    3.283607   4.256597   3.304306   4.297105   1.077299
     7  N    1.396962   2.179823   2.214742   3.269794   1.343216
     8  H    2.151190   2.568224   3.198675   4.226578   2.103268
     9  Cd   4.281850   5.294098   3.135100   3.315653   3.134788
    10  N    2.243152   3.303075   1.422020   2.210203   1.364524
                    6          7          8          9         10
     6  H    0.000000
     7  N    2.149091   0.000000
     8  H    2.545060   1.022615   0.000000
     9  Cd   3.407832   4.250466   5.184811   0.000000
    10  N    2.192633   2.187344   3.173345   2.106971   0.000000
 Stoichiometry    C3H4CdN2(2+)
 Framework group  C1[X(C3H4CdN2)]
 Deg. of freedom    24
 Full point group                 C1      NOp   1
 Largest Abelian subgroup         C1      NOp   1
 Largest concise Abelian subgroup C1      NOp   1
                         Standard orientation:                         
 ---------------------------------------------------------------------
 Center     Atomic      Atomic             Coordinates (Angstroms)
 Number     Number       Type             X           Y           Z
 ---------------------------------------------------------------------
      1          6           0        2.789995    0.740564   -0.000018
      2          1           0        3.700496    1.316116    0.000000
      3          6           0        1.489449    1.148972    0.000020
      4          1           0        1.095529    2.150748    0.000045
      5          6           0        1.506570   -1.105452   -0.000040
      6          1           0        1.222031   -2.144495    0.000002
      7          7           0        2.772461   -0.656288    0.000010
      8          1           0        3.604843   -1.250326    0.000303
      9         48           0       -1.427171   -0.000888    0.000007
     10          7           0        0.679713   -0.019988   -0.000078
 ---------------------------------------------------------------------
 Rotational constants (GHZ):      9.0663773      0.9790032      0.8835914
 1\1\GINC-CAT\FOpt\RB3LYP\3-21G\C3H4Cd1N2(2+)\HAICHEN\18-Jun-2015\0\\# 
 b3lyp/3-21g opt\\Title Card Required\\2,1\C,-2.789995,0.740564,0.00001
 8\H,-3.700496,1.316116,0.\C,-1.489449,1.148972,-0.00002\H,-1.095529,2.
 150748,-0.000045\C,-1.50657,-1.105452,0.00004\H,-1.222031,-2.144495,-0
 .000002\N,-2.772461,-0.656288,-0.00001\H,-3.604843,-1.250326,-0.000303
 \Cd,1.427171,-0.000888,-0.000007\N,-0.679713,-0.019988,0.000078\\Versi
 on=ES64L-G09RevD.01\State=1-A\HF=-5667.0226229\RMSD=1.065e-09\RMSF=1.1
 01e-04\Dipole=0.4126083,-0.490416,-0.000303\Quadrupole=23.3373092,-6.0
 999331,-17.2373761,2.6783438,0.0015779,0.0005148\PG=C01 [X(C3H4Cd1N2)]
 \\@


 ... IT IS NO ONE DREAME THAT
     CAN PLEASE THESE ALL ...

                -- BEN JONSON
 Job cpu time:       0 days  0 hours  0 minutes 46.4 seconds.
 File lengths (MBytes):  RWF=      5 Int=      0 D2E=      0 Chk=      2 Scr=      1
 Normal termination of Gaussian 09 at Thu Jun 18 15:29:10 2015.
