 Entering Gaussian System, Link 0=g09
 Input=cdim2p.gjf
 Output=cdim2p.log
 Initial command:
 /usr/local/bin/g09/l1.exe "/tmp/Gau-19394.inp" -scrdir="/tmp/"
 Default is to use a total of  12 processors:
                               12 via shared-memory
                                1 via Linda
 Entering Link 1 = /usr/local/bin/g09/l1.exe PID=     19395.
  
 Copyright (c) 1988,1990,1992,1993,1995,1998,2003,2009,2013,
            Gaussian, Inc.  All Rights Reserved.
  
 This is part of the Gaussian(R) 09 program.  It is based on
 the Gaussian(R) 03 system (copyright 2003, Gaussian, Inc.),
 the Gaussian(R) 98 system (copyright 1998, Gaussian, Inc.),
 the Gaussian(R) 94 system (copyright 1995, Gaussian, Inc.),
 the Gaussian 92(TM) system (copyright 1992, Gaussian, Inc.),
 the Gaussian 90(TM) system (copyright 1990, Gaussian, Inc.),
 the Gaussian 88(TM) system (copyright 1988, Gaussian, Inc.),
 the Gaussian 86(TM) system (copyright 1986, Carnegie Mellon
 University), and the Gaussian 82(TM) system (copyright 1983,
 Carnegie Mellon University). Gaussian is a federally registered
 trademark of Gaussian, Inc.
  
 This software contains proprietary and confidential information,
 including trade secrets, belonging to Gaussian, Inc.
  
 This software is provided under written license and may be
 used, copied, transmitted, or stored only in accord with that
 written license.
  
 The following legend is applicable only to US Government
 contracts under FAR:
  
                    RESTRICTED RIGHTS LEGEND
  
 Use, reproduction and disclosure by the US Government is
 subject to restrictions as set forth in subparagraphs (a)
 and (c) of the Commercial Computer Software - Restricted
 Rights clause in FAR 52.227-19.
  
 Gaussian, Inc.
 340 Quinnipiac St., Bldg. 40, Wallingford CT 06492
  
  
 ---------------------------------------------------------------
 Warning -- This program may not be used in any manner that
 competes with the business of Gaussian, Inc. or will provide
 assistance to any competitor of Gaussian, Inc.  The licensee
 of this program is prohibited from giving any competitor of
 Gaussian, Inc. access to this program.  By using this program,
 the user acknowledges that Gaussian, Inc. is engaged in the
 business of creating and licensing software in the field of
 computational chemistry and represents and warrants to the
 licensee that it is not a competitor of Gaussian, Inc. and that
 it will not use this program in any manner prohibited above.
 ---------------------------------------------------------------
  

 Cite this work as:
 Gaussian 09, Revision D.01,
 M. J. Frisch, G. W. Trucks, H. B. Schlegel, G. E. Scuseria, 
 M. A. Robb, J. R. Cheeseman, G. Scalmani, V. Barone, B. Mennucci, 
 G. A. Petersson, H. Nakatsuji, M. Caricato, X. Li, H. P. Hratchian, 
 A. F. Izmaylov, J. Bloino, G. Zheng, J. L. Sonnenberg, M. Hada, 
 M. Ehara, K. Toyota, R. Fukuda, J. Hasegawa, M. Ishida, T. Nakajima, 
 Y. Honda, O. Kitao, H. Nakai, T. Vreven, J. A. Montgomery, Jr., 
 J. E. Peralta, F. Ogliaro, M. Bearpark, J. J. Heyd, E. Brothers, 
 K. N. Kudin, V. N. Staroverov, T. Keith, R. Kobayashi, J. Normand, 
 K. Raghavachari, A. Rendell, J. C. Burant, S. S. Iyengar, J. Tomasi, 
 M. Cossi, N. Rega, J. M. Millam, M. Klene, J. E. Knox, J. B. Cross, 
 V. Bakken, C. Adamo, J. Jaramillo, R. Gomperts, R. E. Stratmann, 
 O. Yazyev, A. J. Austin, R. Cammi, C. Pomelli, J. W. Ochterski, 
 R. L. Martin, K. Morokuma, V. G. Zakrzewski, G. A. Voth, 
 P. Salvador, J. J. Dannenberg, S. Dapprich, A. D. Daniels, 
 O. Farkas, J. B. Foresman, J. V. Ortiz, J. Cioslowski, 
 and D. J. Fox, Gaussian, Inc., Wallingford CT, 2013.
 
 ******************************************
 Gaussian 09:  ES64L-G09RevD.01 24-Apr-2013
                18-Jun-2015 
 ******************************************
 %chk=cdim2p.chk
 ----------------------------------------------------------------------
 #p bv5lyp/3-21g iop(3/76=1000002000) iop(3/77=0720008000) iop(3/78=081
 0010000) guess=core
 ----------------------------------------------------------------------
 1/38=1/1;
 2/12=2,17=6,18=5,40=1/2;
 3/5=5,11=2,16=1,25=1,30=1,74=419,76=1000002000,77=720008000,78=810010000/1,2,3;
 4/5=2/1;
 5/5=2,38=5/2;
 6/7=2,8=2,9=2,10=2,28=1/1;
 99/5=1,9=1/99;
 Leave Link    1 at Thu Jun 18 14:49:09 2015, MaxMem=           0 cpu:         0.7
 (Enter /usr/local/bin/g09/l101.exe)
 -------------------
 Title Card Required
 -------------------
 Symbolic Z-matrix:
 Charge =  2 Multiplicity = 1
 C                    -2.78934   0.74015   0.00001 
 H                    -3.69971   1.31532   0.00001 
 C                    -1.48914   1.14873  -0.00001 
 H                    -1.09568   2.15035  -0.00004 
 C                    -1.50567  -1.1051    0.00001 
 H                    -1.22097  -2.14378  -0.00007 
 N                    -2.77149  -0.65633   0.00001 
 H                    -3.60354  -1.25042  -0.00005 
 Cd                    1.42668  -0.00088   0. 
 N                    -0.67935  -0.01967   0.00001 
 
 NAtoms=     10 NQM=       10 NQMF=       0 NMMI=      0 NMMIF=      0
                NMic=       0 NMicF=      0.
                    Isotopes and Nuclear Properties:
 (Nuclear quadrupole moments (NQMom) in fm**2, nuclear magnetic moments (NMagM)
  in nuclear magnetons)

  Atom         1           2           3           4           5           6           7           8           9          10
 IAtWgt=          12           1          12           1          12           1          14           1         114          14
 AtmWgt=  12.0000000   1.0078250  12.0000000   1.0078250  12.0000000   1.0078250  14.0030740   1.0078250 113.9036000  14.0030740
 NucSpn=           0           1           0           1           0           1           2           1           0           2
 AtZEff=   0.0000000   0.0000000   0.0000000   0.0000000   0.0000000   0.0000000   0.0000000   0.0000000   0.0000000   0.0000000
 NQMom=    0.0000000   0.0000000   0.0000000   0.0000000   0.0000000   0.0000000   2.0440000   0.0000000   0.0000000   2.0440000
 NMagM=    0.0000000   2.7928460   0.0000000   2.7928460   0.0000000   2.7928460   0.4037610   2.7928460   0.0000000   0.4037610
 AtZNuc=   6.0000000   1.0000000   6.0000000   1.0000000   6.0000000   1.0000000   7.0000000   1.0000000  48.0000000   7.0000000
 Leave Link  101 at Thu Jun 18 14:49:09 2015, MaxMem=  2147483648 cpu:         1.4
 (Enter /usr/local/bin/g09/l202.exe)
                          Input orientation:                          
 ---------------------------------------------------------------------
 Center     Atomic      Atomic             Coordinates (Angstroms)
 Number     Number       Type             X           Y           Z
 ---------------------------------------------------------------------
      1          6           0       -2.789343    0.740153    0.000006
      2          1           0       -3.699705    1.315321    0.000005
      3          6           0       -1.489141    1.148729   -0.000011
      4          1           0       -1.095680    2.150351   -0.000035
      5          6           0       -1.505673   -1.105101    0.000008
      6          1           0       -1.220972   -2.143783   -0.000073
      7          7           0       -2.771491   -0.656327    0.000009
      8          1           0       -3.603538   -1.250416   -0.000049
      9         48           0        1.426682   -0.000879    0.000000
     10          7           0       -0.679350   -0.019671    0.000010
 ---------------------------------------------------------------------
                    Distance matrix (angstroms):
                    1          2          3          4          5
     1  C    0.000000
     2  H    1.076837   0.000000
     3  C    1.362886   2.216832   0.000000
     4  H    2.203895   2.734634   1.076131   0.000000
     5  C    2.247837   3.266836   2.253891   3.281168   0.000000
     6  H    3.282815   4.255528   3.303415   4.295961   1.076993
     7  N    1.396594   2.179215   2.214193   3.268912   1.343016
     8  H    2.150646   2.567539   3.197901   4.225467   2.102892
     9  Cd   4.280654   5.292658   3.134266   3.315132   3.133371
    10  N    2.242633   3.302234   1.421591   2.209599   1.364173
                    6          7          8          9         10
     6  H    0.000000
     7  N    2.148636   0.000000
     8  H    2.544548   1.022372   0.000000
     9  Cd   3.406187   4.249031   5.183093   0.000000
    10  N    2.192078   2.186866   3.172634   2.106116   0.000000
 Stoichiometry    C3H4CdN2(2+)
 Framework group  C1[X(C3H4CdN2)]
 Deg. of freedom    24
 Full point group                 C1      NOp   1
 Largest Abelian subgroup         C1      NOp   1
 Largest concise Abelian subgroup C1      NOp   1
                         Standard orientation:                         
 ---------------------------------------------------------------------
 Center     Atomic      Atomic             Coordinates (Angstroms)
 Number     Number       Type             X           Y           Z
 ---------------------------------------------------------------------
      1          6           0        2.789343    0.740153   -0.000006
      2          1           0        3.699705    1.315321   -0.000005
      3          6           0        1.489141    1.148729    0.000011
      4          1           0        1.095680    2.150351    0.000035
      5          6           0        1.505673   -1.105101   -0.000008
      6          1           0        1.220972   -2.143783    0.000073
      7          7           0        2.771491   -0.656327   -0.000009
      8          1           0        3.603538   -1.250416    0.000049
      9         48           0       -1.426682   -0.000879    0.000000
     10          7           0        0.679350   -0.019671   -0.000010
 ---------------------------------------------------------------------
 Rotational constants (GHZ):      9.0711705      0.9796510      0.8841647
 Leave Link  202 at Thu Jun 18 14:49:09 2015, MaxMem=  2147483648 cpu:         0.0
 (Enter /usr/local/bin/g09/l301.exe)
 Standard basis: 3-21G (6D, 7F)
 Ernie: Thresh=  0.10000D-02 Tol=  0.10000D-05 Strict=F.
 There are    92 symmetry adapted cartesian basis functions of A   symmetry.
 There are    92 symmetry adapted basis functions of A   symmetry.
    92 basis functions,   174 primitive gaussians,    92 cartesian basis functions
    41 alpha electrons       41 beta electrons
       nuclear repulsion energy       445.4360230000 Hartrees.
 IExCor=  419 DFT=T Ex=B+HF Corr=V5LYP ExCW=0 ScaHFX=  0.200000
 ScaDFX=  0.800000  0.720000  1.000000  0.810000 ScalE2=  1.000000  1.000000
 IRadAn=      0 IRanWt=     -1 IRanGd=            0 ICorTp=0 IEmpDi=  4
 NAtoms=   10 NActive=   10 NUniq=   10 SFac= 1.00D+00 NAtFMM=   60 NAOKFM=F Big=F
 Integral buffers will be    131072 words long.
 Raffenetti 2 integral format.
 Two-electron integral symmetry is turned on.
 Leave Link  301 at Thu Jun 18 14:49:09 2015, MaxMem=  2147483648 cpu:         0.8
 (Enter /usr/local/bin/g09/l302.exe)
 NPDir=0 NMtPBC=     1 NCelOv=     1 NCel=       1 NClECP=     1 NCelD=      1
         NCelK=      1 NCelE2=     1 NClLst=     1 CellRange=     0.0.
 One-electron integrals computed using PRISM.
 NBasis=    92 RedAO= T EigKep=  1.24D-03  NBF=    92
 NBsUse=    92 1.00D-06 EigRej= -1.00D+00 NBFU=    92
 Precomputing XC quadrature grid using
 IXCGrd= 4 IRadAn=           0 IRanWt=          -1 IRanGd=           0 AccXCQ= 0.00D+00.
 Defaulting to unpruned grid for atomic number  48.
 Generated NRdTot=       0 NPtTot=           0 NUsed=           0 NTot=          32
 NSgBfM=    91    91    91    91    91 MxSgAt=    10 MxSgA2=    10.
 Leave Link  302 at Thu Jun 18 14:49:09 2015, MaxMem=  2147483648 cpu:         2.1
 (Enter /usr/local/bin/g09/l303.exe)
 DipDrv:  MaxL=1.
 Leave Link  303 at Thu Jun 18 14:49:09 2015, MaxMem=  2147483648 cpu:         0.4
 (Enter /usr/local/bin/g09/l401.exe)
 Core hamiltonian diagonalized for initial guess.
 JPrj=0 DoOrth=F DoCkMO=F.
 Leave Link  401 at Thu Jun 18 14:49:09 2015, MaxMem=  2147483648 cpu:         0.5
 (Enter /usr/local/bin/g09/l502.exe)
 Closed shell SCF:
 Using DIIS extrapolation, IDIIS=  1040.
 Integral symmetry usage will be decided dynamically.
 Keep R1 ints in memory in canonical form, NReq=10113249.
 IVT=       45742 IEndB=       45742 NGot=  2147483648 MDV=  2138285126
 LenX=  2138285126 LenY=  2138276221
 Requested convergence on RMS density matrix=1.00D-08 within 128 cycles.
 Requested convergence on MAX density matrix=1.00D-06.
 Requested convergence on             energy=1.00D-06.
 No special actions if energy rises.
 FoFCou: FMM=F IPFlag=           0 FMFlag=           0 FMFlg1=           0
         NFxFlg=           0 DoJE=F BraDBF=F KetDBF=F FulRan=T
         wScrn=  0.000000 ICntrl=     600 IOpCl=  0 I1Cent=           0 NGrid=           0
         NMat0=    1 NMatS0=   4278 NMatT0=    0 NMatD0=    1 NMtDS0=    0 NMtDT0=    0
 Symmetry not used in FoFCou.

 Cycle   1  Pass 1  IDiag  1:
 Defaulting to unpruned grid for atomic number  48.
 Defaulting to unpruned grid for atomic number  48.
 Defaulting to unpruned grid for atomic number  48.
 Defaulting to unpruned grid for atomic number  48.
 Defaulting to unpruned grid for atomic number  48.
 Defaulting to unpruned grid for atomic number  48.
 Defaulting to unpruned grid for atomic number  48.
 Defaulting to unpruned grid for atomic number  48.
 Defaulting to unpruned grid for atomic number  48.
 Defaulting to unpruned grid for atomic number  48.
 Defaulting to unpruned grid for atomic number  48.
 Defaulting to unpruned grid for atomic number  48.
 E= -5548.11900857152    
 DIIS: error= 7.02D+00 at cycle   1 NSaved=   1.
 NSaved= 1 IEnMin= 1 EnMin= -5548.11900857152     IErMin= 1 ErrMin= 7.02D+00
 ErrMax= 7.02D+00  0.00D+00 EMaxC= 1.00D-01 BMatC= 6.15D+02 BMatP= 6.15D+02
 IDIUse=3 WtCom= 0.00D+00 WtEn= 1.00D+00
 Coeff-Com:  0.100D+01
 Coeff-En:   0.100D+01
 Coeff:      0.100D+01
 Gap=     0.517 Goal=   None    Shift=    0.000
 GapD=    0.517 DampG=2.000 DampE=0.125 DampFc=0.2500 IDamp=-1.
 Damping current iteration by 2.50D-01
 RMSDP=1.49D+00 MaxDP=8.37D+01              OVMax= 8.07D-01

 Cycle   2  Pass 1  IDiag  1:
 E= -5611.26648894880     Delta-E=      -63.147480377272 Rises=F Damp=T
 DIIS: error= 5.20D+00 at cycle   2 NSaved=   2.
 NSaved= 2 IEnMin= 2 EnMin= -5611.26648894880     IErMin= 2 ErrMin= 5.20D+00
 ErrMax= 5.20D+00  0.00D+00 EMaxC= 1.00D-01 BMatC= 3.36D+02 BMatP= 6.15D+02
 IDIUse=3 WtCom= 0.00D+00 WtEn= 1.00D+00
 Coeff-Com: -0.273D+01 0.373D+01
 Coeff-En:   0.000D+00 0.100D+01
 Coeff:      0.000D+00 0.100D+01
 Gap=    -0.239 Goal=   None    Shift=    0.000
 RMSDP=1.10D+00 MaxDP=6.18D+01 DE=-6.31D+01 OVMax= 7.53D-01

 Cycle   3  Pass 1  IDiag  1:
 E= -5495.32363302624     Delta-E=      115.942855922553 Rises=F Damp=F
 DIIS: error= 5.62D-01 at cycle   3 NSaved=   3.
 NSaved= 3 IEnMin= 2 EnMin= -5611.26648894880     IErMin= 3 ErrMin= 5.62D-01
 ErrMax= 5.62D-01  0.00D+00 EMaxC= 1.00D-01 BMatC= 3.66D+01 BMatP= 3.36D+02
 IDIUse=3 WtCom= 0.00D+00 WtEn= 1.00D+00
 EnCoef did   100 forward-backward iterations
 Coeff-Com: -0.226D+01 0.309D+01 0.165D+00
 Coeff-En:   0.532D+00 0.447D-01 0.423D+00
 Coeff:      0.532D+00 0.447D-01 0.423D+00
 Gap=    -0.187 Goal=   None    Shift=    0.000
 RMSDP=1.55D-01 MaxDP=3.81D+00 DE= 1.16D+02 OVMax= 9.95D-01

 Cycle   4  Pass 1  IDiag  1:
 E= -5661.20992640878     Delta-E=     -165.886293382534 Rises=F Damp=F
 DIIS: error= 2.15D-01 at cycle   4 NSaved=   4.
 NSaved= 4 IEnMin= 4 EnMin= -5661.20992640878     IErMin= 4 ErrMin= 2.15D-01
 ErrMax= 2.15D-01  0.00D+00 EMaxC= 1.00D-01 BMatC= 4.94D+00 BMatP= 3.66D+01
 IDIUse=3 WtCom= 0.00D+00 WtEn= 1.00D+00
 Coeff-Com: -0.547D+00 0.755D+00 0.433D-01 0.749D+00
 Coeff-En:   0.000D+00 0.000D+00 0.000D+00 0.100D+01
 Coeff:      0.000D+00 0.000D+00 0.000D+00 0.100D+01
 Gap=     0.633 Goal=   None    Shift=    0.000
 RMSDP=7.23D-02 MaxDP=2.23D+00 DE=-1.66D+02 OVMax= 5.63D-01

 Cycle   5  Pass 1  IDiag  1:
 E= -5638.38043188950     Delta-E=       22.829494519280 Rises=F Damp=F
 DIIS: error= 6.07D-01 at cycle   5 NSaved=   5.
 NSaved= 5 IEnMin= 4 EnMin= -5661.20992640878     IErMin= 4 ErrMin= 2.15D-01
 ErrMax= 6.07D-01  0.00D+00 EMaxC= 1.00D-01 BMatC= 3.09D+01 BMatP= 4.94D+00
 IDIUse=2 WtCom= 0.00D+00 WtEn= 1.00D+00
 Coeff-En:   0.000D+00 0.000D+00 0.000D+00 0.796D+00 0.204D+00
 Coeff:      0.000D+00 0.000D+00 0.000D+00 0.796D+00 0.204D+00
 Gap=     0.585 Goal=   None    Shift=    0.000
 RMSDP=5.24D-02 MaxDP=8.27D-01 DE= 2.28D+01 OVMax= 9.86D-01

 Cycle   6  Pass 1  IDiag  1:
 E= -5663.33735916449     Delta-E=      -24.956927274990 Rises=F Damp=F
 DIIS: error= 2.37D-01 at cycle   6 NSaved=   6.
 NSaved= 6 IEnMin= 6 EnMin= -5663.33735916449     IErMin= 4 ErrMin= 2.15D-01
 ErrMax= 2.37D-01  0.00D+00 EMaxC= 1.00D-01 BMatC= 2.90D+00 BMatP= 4.94D+00
 IDIUse=3 WtCom= 0.00D+00 WtEn= 1.00D+00
 Coeff-Com: -0.257D+00 0.351D+00 0.158D-01 0.343D+00 0.243D-01 0.524D+00
 Coeff-En:   0.000D+00 0.000D+00 0.000D+00 0.393D+00 0.000D+00 0.607D+00
 Coeff:      0.000D+00 0.000D+00 0.000D+00 0.393D+00 0.000D+00 0.607D+00
 Gap=     0.206 Goal=   None    Shift=    0.000
 RMSDP=6.21D-02 MaxDP=2.11D+00 DE=-2.50D+01 OVMax= 9.45D-01

 Cycle   7  Pass 1  IDiag  1:
 E= -5650.57118358794     Delta-E=       12.766175576547 Rises=F Damp=F
 DIIS: error= 4.91D-01 at cycle   7 NSaved=   7.
 NSaved= 7 IEnMin= 6 EnMin= -5663.33735916449     IErMin= 4 ErrMin= 2.15D-01
 ErrMax= 4.91D-01  0.00D+00 EMaxC= 1.00D-01 BMatC= 1.37D+01 BMatP= 2.90D+00
 IDIUse=2 WtCom= 0.00D+00 WtEn= 1.00D+00
 EnCoef did     4 forward-backward iterations
 Coeff-En:   0.000D+00 0.000D+00 0.000D+00 0.334D+00 0.000D+00 0.572D+00
 Coeff-En:   0.944D-01
 Coeff:      0.000D+00 0.000D+00 0.000D+00 0.334D+00 0.000D+00 0.572D+00
 Coeff:      0.944D-01
 Gap=     0.010 Goal=   None    Shift=    0.000
 RMSDP=5.55D-02 MaxDP=1.93D+00 DE= 1.28D+01 OVMax= 9.98D-01

 Cycle   8  Pass 1  IDiag  1:
 E= -5666.28825933324     Delta-E=      -15.717075745300 Rises=F Damp=F
 DIIS: error= 8.71D-02 at cycle   8 NSaved=   8.
 NSaved= 8 IEnMin= 8 EnMin= -5666.28825933324     IErMin= 8 ErrMin= 8.71D-02
 ErrMax= 8.71D-02  0.00D+00 EMaxC= 1.00D-01 BMatC= 4.25D-01 BMatP= 2.90D+00
 IDIUse=3 WtCom= 1.29D-01 WtEn= 8.71D-01
 Coeff-Com: -0.337D-01 0.462D-01-0.102D-01 0.408D-01-0.147D-01 0.261D+00
 Coeff-Com: -0.163D-01 0.727D+00
 Coeff-En:   0.000D+00 0.000D+00 0.000D+00 0.000D+00 0.000D+00 0.149D+00
 Coeff-En:   0.000D+00 0.851D+00
 Coeff:     -0.436D-02 0.597D-02-0.132D-02 0.527D-02-0.190D-02 0.164D+00
 Coeff:     -0.210D-02 0.835D+00
 Gap=     0.587 Goal=   None    Shift=    0.000
 RMSDP=1.86D-02 MaxDP=6.93D-01 DE=-1.57D+01 OVMax= 9.91D-01

 Cycle   9  Pass 1  IDiag  1:
 E= -5665.72932320012     Delta-E=        0.558936133122 Rises=F Damp=F
 DIIS: error= 9.31D-02 at cycle   9 NSaved=   9.
 NSaved= 9 IEnMin= 8 EnMin= -5666.28825933324     IErMin= 8 ErrMin= 8.71D-02
 ErrMax= 9.31D-02  0.00D+00 EMaxC= 1.00D-01 BMatC= 5.10D-01 BMatP= 4.25D-01
 IDIUse=2 WtCom= 0.00D+00 WtEn= 1.00D+00
 Coeff-En:   0.000D+00 0.000D+00 0.000D+00 0.000D+00 0.000D+00 0.000D+00
 Coeff-En:   0.000D+00 0.650D+00 0.350D+00
 Coeff:      0.000D+00 0.000D+00 0.000D+00 0.000D+00 0.000D+00 0.000D+00
 Coeff:      0.000D+00 0.650D+00 0.350D+00
 Gap=    -0.113 Goal=   None    Shift=    0.000
 RMSDP=1.51D-02 MaxDP=7.42D-01 DE= 5.59D-01 OVMax= 9.99D-01

 Cycle  10  Pass 1  IDiag  1:
 E= -5666.57719387179     Delta-E=       -0.847870671668 Rises=F Damp=F
 DIIS: error= 3.97D-02 at cycle  10 NSaved=  10.
 NSaved=10 IEnMin=10 EnMin= -5666.57719387179     IErMin=10 ErrMin= 3.97D-02
 ErrMax= 3.97D-02  0.00D+00 EMaxC= 1.00D-01 BMatC= 1.28D-01 BMatP= 4.25D-01
 IDIUse=3 WtCom= 6.03D-01 WtEn= 3.97D-01
 EnCoef did     3 forward-backward iterations
 Coeff-Com:  0.106D-03-0.257D-03-0.139D-02-0.130D-01 0.997D-03-0.610D-01
 Coeff-Com: -0.593D-02 0.396D+00 0.327D+00 0.358D+00
 Coeff-En:   0.000D+00 0.000D+00 0.000D+00 0.000D+00 0.000D+00 0.000D+00
 Coeff-En:   0.000D+00 0.257D+00 0.606D-01 0.682D+00
 Coeff:      0.637D-04-0.155D-03-0.839D-03-0.786D-02 0.601D-03-0.368D-01
 Coeff:     -0.357D-02 0.341D+00 0.221D+00 0.487D+00
 Gap=     0.069 Goal=   None    Shift=    0.000
 RMSDP=4.92D-03 MaxDP=9.71D-02 DE=-8.48D-01 OVMax= 1.76D-01

 Cycle  11  Pass 1  IDiag  1:
 E= -5666.67458898937     Delta-E=       -0.097395117582 Rises=F Damp=F
 DIIS: error= 2.11D-02 at cycle  11 NSaved=  11.
 NSaved=11 IEnMin=11 EnMin= -5666.67458898937     IErMin=11 ErrMin= 2.11D-02
 ErrMax= 2.11D-02  0.00D+00 EMaxC= 1.00D-01 BMatC= 2.72D-02 BMatP= 1.28D-01
 IDIUse=3 WtCom= 7.89D-01 WtEn= 2.11D-01
 Coeff-Com:  0.489D-03-0.756D-03 0.532D-03-0.447D-02-0.246D-03-0.200D-01
 Coeff-Com: -0.103D-02 0.928D-02 0.782D-01 0.270D+00 0.668D+00
 Coeff-En:   0.000D+00 0.000D+00 0.000D+00 0.000D+00 0.000D+00 0.000D+00
 Coeff-En:   0.000D+00 0.000D+00 0.000D+00 0.205D+00 0.795D+00
 Coeff:      0.386D-03-0.597D-03 0.419D-03-0.353D-02-0.194D-03-0.158D-01
 Coeff:     -0.809D-03 0.732D-02 0.617D-01 0.256D+00 0.695D+00
 Gap=     0.030 Goal=   None    Shift=    0.000
 RMSDP=2.27D-03 MaxDP=2.95D-02 DE=-9.74D-02 OVMax= 8.27D-02

 Cycle  12  Pass 1  IDiag  1:
 E= -5666.70017495051     Delta-E=       -0.025585961147 Rises=F Damp=F
 DIIS: error= 7.38D-03 at cycle  12 NSaved=  12.
 NSaved=12 IEnMin=12 EnMin= -5666.70017495051     IErMin=12 ErrMin= 7.38D-03
 ErrMax= 7.38D-03  0.00D+00 EMaxC= 1.00D-01 BMatC= 2.12D-03 BMatP= 2.72D-02
 IDIUse=3 WtCom= 9.26D-01 WtEn= 7.38D-02
 Coeff-Com:  0.735D-03-0.994D-03 0.373D-03-0.292D-02-0.333D-03 0.349D-02
 Coeff-Com:  0.171D-03-0.348D-01 0.970D-03 0.623D-01 0.387D+00 0.584D+00
 Coeff-En:   0.000D+00 0.000D+00 0.000D+00 0.000D+00 0.000D+00 0.000D+00
 Coeff-En:   0.000D+00 0.000D+00 0.000D+00 0.000D+00 0.114D-01 0.989D+00
 Coeff:      0.681D-03-0.921D-03 0.346D-03-0.271D-02-0.308D-03 0.323D-02
 Coeff:      0.159D-03-0.323D-01 0.899D-03 0.577D-01 0.360D+00 0.614D+00
 Gap=     0.035 Goal=   None    Shift=    0.000
 RMSDP=6.76D-04 MaxDP=1.06D-02 DE=-2.56D-02 OVMax= 2.75D-02

 Cycle  13  Pass 1  IDiag  1:
 E= -5666.70223545375     Delta-E=       -0.002060503237 Rises=F Damp=F
 DIIS: error= 1.92D-03 at cycle  13 NSaved=  13.
 NSaved=13 IEnMin=13 EnMin= -5666.70223545375     IErMin=13 ErrMin= 1.92D-03
 ErrMax= 1.92D-03  0.00D+00 EMaxC= 1.00D-01 BMatC= 2.55D-04 BMatP= 2.12D-03
 IDIUse=3 WtCom= 9.81D-01 WtEn= 1.92D-02
 Coeff-Com: -0.358D-05-0.351D-06 0.306D-04-0.145D-02 0.714D-04-0.815D-03
 Coeff-Com:  0.753D-04 0.227D-02 0.264D-02 0.199D-01 0.211D-02 0.164D+00
 Coeff-Com:  0.811D+00
 Coeff-En:   0.000D+00 0.000D+00 0.000D+00 0.000D+00 0.000D+00 0.000D+00
 Coeff-En:   0.000D+00 0.000D+00 0.000D+00 0.000D+00 0.000D+00 0.765D-01
 Coeff-En:   0.924D+00
 Coeff:     -0.351D-05-0.345D-06 0.300D-04-0.143D-02 0.700D-04-0.800D-03
 Coeff:      0.738D-04 0.222D-02 0.258D-02 0.196D-01 0.207D-02 0.162D+00
 Coeff:      0.813D+00
 Gap=     0.041 Goal=   None    Shift=    0.000
 RMSDP=1.52D-04 MaxDP=2.75D-03 DE=-2.06D-03 OVMax= 5.29D-03

 Cycle  14  Pass 1  IDiag  1:
 E= -5666.70247701769     Delta-E=       -0.000241563935 Rises=F Damp=F
 DIIS: error= 2.23D-04 at cycle  14 NSaved=  14.
 NSaved=14 IEnMin=14 EnMin= -5666.70247701769     IErMin=14 ErrMin= 2.23D-04
 ErrMax= 2.23D-04  0.00D+00 EMaxC= 1.00D-01 BMatC= 3.78D-06 BMatP= 2.55D-04
 IDIUse=3 WtCom= 9.98D-01 WtEn= 2.23D-03
 Coeff-Com:  0.211D-04-0.300D-04-0.640D-05-0.305D-03-0.971D-05-0.184D-03
 Coeff-Com:  0.358D-05 0.145D-02 0.451D-03 0.618D-02-0.976D-02 0.109D-01
 Coeff-Com:  0.164D+00 0.827D+00
 Coeff-En:   0.000D+00 0.000D+00 0.000D+00 0.000D+00 0.000D+00 0.000D+00
 Coeff-En:   0.000D+00 0.000D+00 0.000D+00 0.000D+00 0.000D+00 0.000D+00
 Coeff-En:   0.000D+00 0.100D+01
 Coeff:      0.211D-04-0.299D-04-0.638D-05-0.304D-03-0.969D-05-0.184D-03
 Coeff:      0.358D-05 0.144D-02 0.450D-03 0.617D-02-0.974D-02 0.109D-01
 Coeff:      0.164D+00 0.828D+00
 Gap=     0.041 Goal=   None    Shift=    0.000
 RMSDP=2.20D-05 MaxDP=3.73D-04 DE=-2.42D-04 OVMax= 9.04D-04

 Cycle  15  Pass 1  IDiag  1:
 E= -5666.70247991099     Delta-E=       -0.000002893300 Rises=F Damp=F
 DIIS: error= 1.13D-04 at cycle  15 NSaved=  15.
 NSaved=15 IEnMin=15 EnMin= -5666.70247991099     IErMin=15 ErrMin= 1.13D-04
 ErrMax= 1.13D-04  0.00D+00 EMaxC= 1.00D-01 BMatC= 8.88D-07 BMatP= 3.78D-06
 IDIUse=3 WtCom= 9.99D-01 WtEn= 1.13D-03
 Coeff-Com:  0.703D-05-0.962D-05-0.312D-05-0.408D-04 0.547D-05-0.127D-03
 Coeff-Com: -0.105D-05 0.446D-03 0.197D-03 0.222D-02-0.642D-02-0.466D-02
 Coeff-Com:  0.451D-01 0.472D+00 0.491D+00
 Coeff-En:   0.000D+00 0.000D+00 0.000D+00 0.000D+00 0.000D+00 0.000D+00
 Coeff-En:   0.000D+00 0.000D+00 0.000D+00 0.000D+00 0.000D+00 0.000D+00
 Coeff-En:   0.000D+00 0.519D-01 0.948D+00
 Coeff:      0.702D-05-0.961D-05-0.312D-05-0.407D-04 0.546D-05-0.127D-03
 Coeff:     -0.105D-05 0.446D-03 0.197D-03 0.222D-02-0.641D-02-0.466D-02
 Coeff:      0.450D-01 0.472D+00 0.492D+00
 Gap=     0.041 Goal=   None    Shift=    0.000
 RMSDP=1.05D-05 MaxDP=2.06D-04 DE=-2.89D-06 OVMax= 4.49D-04

 Cycle  16  Pass 1  IDiag  1:
 E= -5666.70248074725     Delta-E=       -0.000000836269 Rises=F Damp=F
 DIIS: error= 1.69D-05 at cycle  16 NSaved=  16.
 NSaved=16 IEnMin=16 EnMin= -5666.70248074725     IErMin=16 ErrMin= 1.69D-05
 ErrMax= 1.69D-05  0.00D+00 EMaxC= 1.00D-01 BMatC= 3.17D-08 BMatP= 8.88D-07
 IDIUse=1 WtCom= 1.00D+00 WtEn= 0.00D+00
 Coeff-Com: -0.435D-06 0.754D-06-0.927D-06 0.202D-04-0.779D-06-0.707D-06
 Coeff-Com: -0.229D-06-0.409D-04 0.297D-04-0.236D-04-0.991D-03-0.224D-03
 Coeff-Com:  0.655D-02 0.780D-01 0.144D+00 0.773D+00
 Coeff:     -0.435D-06 0.754D-06-0.927D-06 0.202D-04-0.779D-06-0.707D-06
 Coeff:     -0.229D-06-0.409D-04 0.297D-04-0.236D-04-0.991D-03-0.224D-03
 Coeff:      0.655D-02 0.780D-01 0.144D+00 0.773D+00
 Gap=     0.041 Goal=   None    Shift=    0.000
 RMSDP=2.55D-06 MaxDP=5.58D-05 DE=-8.36D-07 OVMax= 9.11D-05

 Cycle  17  Pass 1  IDiag  1:
 E= -5666.70248078582     Delta-E=       -0.000000038567 Rises=F Damp=F
 DIIS: error= 3.71D-06 at cycle  17 NSaved=  17.
 NSaved=17 IEnMin=17 EnMin= -5666.70248078582     IErMin=17 ErrMin= 3.71D-06
 ErrMax= 3.71D-06  0.00D+00 EMaxC= 1.00D-01 BMatC= 1.87D-09 BMatP= 3.17D-08
 IDIUse=1 WtCom= 1.00D+00 WtEn= 0.00D+00
 Coeff-Com: -0.102D-05 0.144D-05 0.365D-07 0.818D-05 0.265D-06 0.183D-05
 Coeff-Com: -0.643D-06-0.443D-04 0.122D-04-0.859D-04-0.197D-03 0.298D-03
 Coeff-Com:  0.252D-02 0.201D-01 0.387D-01 0.285D+00 0.654D+00
 Coeff:     -0.102D-05 0.144D-05 0.365D-07 0.818D-05 0.265D-06 0.183D-05
 Coeff:     -0.643D-06-0.443D-04 0.122D-04-0.859D-04-0.197D-03 0.298D-03
 Coeff:      0.252D-02 0.201D-01 0.387D-01 0.285D+00 0.654D+00
 Gap=     0.041 Goal=   None    Shift=    0.000
 RMSDP=7.42D-07 MaxDP=1.93D-05 DE=-3.86D-08 OVMax= 3.24D-05

 Cycle  18  Pass 1  IDiag  1:
 E= -5666.70248078752     Delta-E=       -0.000000001699 Rises=F Damp=F
 DIIS: error= 3.38D-06 at cycle  18 NSaved=  18.
 NSaved=18 IEnMin=18 EnMin= -5666.70248078752     IErMin=18 ErrMin= 3.38D-06
 ErrMax= 3.38D-06  0.00D+00 EMaxC= 1.00D-01 BMatC= 6.52D-10 BMatP= 1.87D-09
 IDIUse=1 WtCom= 1.00D+00 WtEn= 0.00D+00
 Coeff-Com: -0.179D-06 0.237D-06-0.470D-07 0.693D-06 0.115D-06 0.223D-05
 Coeff-Com:  0.157D-06-0.528D-05-0.750D-06-0.682D-04 0.290D-05-0.341D-04
 Coeff-Com: -0.349D-03-0.311D-02-0.112D-01-0.163D-01 0.450D+00 0.581D+00
 Coeff:     -0.179D-06 0.237D-06-0.470D-07 0.693D-06 0.115D-06 0.223D-05
 Coeff:      0.157D-06-0.528D-05-0.750D-06-0.682D-04 0.290D-05-0.341D-04
 Coeff:     -0.349D-03-0.311D-02-0.112D-01-0.163D-01 0.450D+00 0.581D+00
 Gap=     0.041 Goal=   None    Shift=    0.000
 RMSDP=2.10D-07 MaxDP=4.21D-06 DE=-1.70D-09 OVMax= 8.13D-06

 Cycle  19  Pass 1  IDiag  1:
 E= -5666.70248078808     Delta-E=       -0.000000000563 Rises=F Damp=F
 DIIS: error= 2.20D-07 at cycle  19 NSaved=  19.
 NSaved=19 IEnMin=19 EnMin= -5666.70248078808     IErMin=19 ErrMin= 2.20D-07
 ErrMax= 2.20D-07  0.00D+00 EMaxC= 1.00D-01 BMatC= 2.67D-12 BMatP= 6.52D-10
 IDIUse=1 WtCom= 1.00D+00 WtEn= 0.00D+00
 Coeff-Com: -0.438D-07 0.575D-07 0.455D-08-0.145D-06 0.130D-07 0.294D-07
 Coeff-Com:  0.608D-08 0.640D-06 0.293D-06-0.171D-05 0.347D-05-0.398D-04
 Coeff-Com: -0.824D-04-0.193D-03-0.111D-02-0.136D-02 0.237D-01 0.313D-01
 Coeff-Com:  0.948D+00
 Coeff:     -0.438D-07 0.575D-07 0.455D-08-0.145D-06 0.130D-07 0.294D-07
 Coeff:      0.608D-08 0.640D-06 0.293D-06-0.171D-05 0.347D-05-0.398D-04
 Coeff:     -0.824D-04-0.193D-03-0.111D-02-0.136D-02 0.237D-01 0.313D-01
 Coeff:      0.948D+00
 Gap=     0.041 Goal=   None    Shift=    0.000
 RMSDP=2.66D-08 MaxDP=3.81D-07 DE=-5.63D-10 OVMax= 9.01D-07

 Cycle  20  Pass 1  IDiag  1:
 E= -5666.70248078804     Delta-E=        0.000000000045 Rises=F Damp=F
 DIIS: error= 4.56D-08 at cycle  20 NSaved=  20.
 NSaved=20 IEnMin=19 EnMin= -5666.70248078808     IErMin=20 ErrMin= 4.56D-08
 ErrMax= 4.56D-08  0.00D+00 EMaxC= 1.00D-01 BMatC= 1.57D-13 BMatP= 2.67D-12
 IDIUse=1 WtCom= 1.00D+00 WtEn= 0.00D+00
 Coeff-Com:  0.130D-08-0.184D-08 0.140D-08-0.250D-07-0.204D-08 0.939D-08
 Coeff-Com: -0.722D-09 0.390D-06-0.108D-07 0.365D-06-0.198D-05-0.681D-05
 Coeff-Com: -0.102D-04 0.183D-03 0.282D-03 0.161D-02-0.383D-02-0.105D-01
 Coeff-Com:  0.517D-01 0.961D+00
 Coeff:      0.130D-08-0.184D-08 0.140D-08-0.250D-07-0.204D-08 0.939D-08
 Coeff:     -0.722D-09 0.390D-06-0.108D-07 0.365D-06-0.198D-05-0.681D-05
 Coeff:     -0.102D-04 0.183D-03 0.282D-03 0.161D-02-0.383D-02-0.105D-01
 Coeff:      0.517D-01 0.961D+00
 Gap=     0.041 Goal=   None    Shift=    0.000
 RMSDP=6.49D-09 MaxDP=1.28D-07 DE= 4.46D-11 OVMax= 3.92D-07

 SCF Done:  E(RB+HF-V5LYP) =  -5666.70248079     A.U. after   20 cycles
            NFock= 20  Conv=0.65D-08     -V/T= 2.0047
 KE= 5.640061694343D+03 PE=-1.431258960376D+04 EE= 2.560389405626D+03
 Leave Link  502 at Thu Jun 18 14:49:11 2015, MaxMem=  2147483648 cpu:        22.6
 (Enter /usr/local/bin/g09/l601.exe)
 Copying SCF densities to generalized density rwf, IOpCl= 0 IROHF=0.

 **********************************************************************

            Population analysis using the SCF density.

 **********************************************************************

 Orbital symmetries:
       Occupied  (A) (A) (A) (A) (A) (A) (A) (A) (A) (A) (A) (A)
                 (A) (A) (A) (A) (A) (A) (A) (A) (A) (A) (A) (A)
                 (A) (A) (A) (A) (A) (A) (A) (A) (A) (A) (A) (A)
                 (A) (A) (A) (A) (A)
       Virtual   (A) (A) (A) (A) (A) (A) (A) (A) (A) (A) (A) (A)
                 (A) (A) (A) (A) (A) (A) (A) (A) (A) (A) (A) (A)
                 (A) (A) (A) (A) (A) (A) (A) (A) (A) (A) (A) (A)
                 (A) (A) (A) (A) (A) (A) (A) (A) (A) (A) (A) (A)
                 (A) (A) (A)
 The electronic state is 1-A.
 Alpha  occ. eigenvalues -- -940.39432-138.08188-128.30515-128.30493-128.30428
 Alpha  occ. eigenvalues --  -26.42970 -22.25155 -22.25095 -22.24678 -15.51715
 Alpha  occ. eigenvalues --  -15.51714 -15.51432 -15.51388 -15.51337 -14.66920
 Alpha  occ. eigenvalues --  -14.66097 -10.55549 -10.49471 -10.49059  -4.27581
 Alpha  occ. eigenvalues --   -2.92647  -2.92510  -2.92289  -1.38134  -1.23596
 Alpha  occ. eigenvalues --   -1.10191  -1.03148  -1.01948  -1.01865  -1.01863
 Alpha  occ. eigenvalues --   -1.01709  -0.95876  -0.94293  -0.90798  -0.79671
 Alpha  occ. eigenvalues --   -0.78245  -0.78082  -0.76715  -0.72650  -0.64896
 Alpha  occ. eigenvalues --   -0.57635
 Alpha virt. eigenvalues --   -0.53519  -0.38038  -0.37444  -0.32247  -0.28858
 Alpha virt. eigenvalues --   -0.27546  -0.21277  -0.18712  -0.18040  -0.16251
 Alpha virt. eigenvalues --   -0.15260  -0.13999  -0.12025  -0.10964  -0.09438
 Alpha virt. eigenvalues --   -0.06918   0.05355   0.05873   0.12030   0.27536
 Alpha virt. eigenvalues --    0.36555   0.37858   0.39092   0.43696   0.43888
 Alpha virt. eigenvalues --    0.48476   0.50502   0.52456   0.60036   0.68197
 Alpha virt. eigenvalues --    0.69563   0.71776   0.75779   0.79417   0.81065
 Alpha virt. eigenvalues --    0.81095   0.83073   0.88109   0.94245   0.97763
 Alpha virt. eigenvalues --    0.98564   1.07098   1.21722   1.32160   1.38279
 Alpha virt. eigenvalues --    1.40921   1.50482   2.32327   2.38433   4.24645
 Alpha virt. eigenvalues --  207.55482
          Condensed to atoms (all electrons):
               1          2          3          4          5          6
     1  C    4.903400   0.364476   0.567524  -0.018903  -0.120587   0.001925
     2  H    0.364476   0.337287  -0.021195  -0.001022   0.002264  -0.000018
     3  C    0.567524  -0.021195   5.007984   0.370847  -0.131200   0.001824
     4  H   -0.018903  -0.001022   0.370847   0.364737   0.002232  -0.000020
     5  C   -0.120587   0.002264  -0.131200   0.002232   4.787499   0.362830
     6  H    0.001925  -0.000018   0.001824  -0.000020   0.362830   0.345364
     7  N    0.261827  -0.023710  -0.054799   0.002393   0.353991  -0.024653
     8  H   -0.014389  -0.000899   0.003010  -0.000032  -0.020141  -0.000944
     9  Cd  -0.000149   0.000116  -0.015100   0.000611  -0.015315  -0.000604
    10  N   -0.057067   0.002176   0.258765  -0.025902   0.344534  -0.025254
               7          8          9         10
     1  C    0.261827  -0.014389  -0.000149  -0.057067
     2  H   -0.023710  -0.000899   0.000116   0.002176
     3  C   -0.054799   0.003010  -0.015100   0.258765
     4  H    0.002393  -0.000032   0.000611  -0.025902
     5  C    0.353991  -0.020141  -0.015315   0.344534
     6  H   -0.024653  -0.000944  -0.000604  -0.025254
     7  N    6.935194   0.321338   0.001643  -0.089768
     8  H    0.321338   0.281826   0.000033   0.002237
     9  Cd   0.001643   0.000033  46.359916   0.242735
    10  N   -0.089768   0.002237   0.242735   7.061472
 Mulliken charges:
               1
     1  C    0.111943
     2  H    0.340524
     3  C    0.012338
     4  H    0.305059
     5  C    0.433893
     6  H    0.339550
     7  N   -0.683455
     8  H    0.427960
     9  Cd   1.426114
    10  N   -0.713927
 Sum of Mulliken charges =   2.00000
 Mulliken charges with hydrogens summed into heavy atoms:
               1
     1  C    0.452467
     3  C    0.317397
     5  C    0.773444
     7  N   -0.255495
     9  Cd   1.426114
    10  N   -0.713927
 Electronic spatial extent (au):  <R**2>=           1092.2411
 Charge=              2.0000 electrons
 Dipole moment (field-independent basis, Debye):
    X=             -1.0430    Y=             -1.2475    Z=              0.0002  Tot=              1.6261
 Quadrupole moment (field-independent basis, Debye-Ang):
   XX=              8.7298   YY=            -30.8445   ZZ=            -45.8097
   XY=             -3.6022   XZ=              0.0005   YZ=             -0.0003
 Traceless Quadrupole moment (field-independent basis, Debye-Ang):
   XX=             31.3713   YY=             -8.2030   ZZ=            -23.1683
   XY=             -3.6022   XZ=              0.0005   YZ=             -0.0003
 Octapole moment (field-independent basis, Debye-Ang**2):
  XXX=              1.3926  YYY=             -5.7593  ZZZ=              0.0001  XYY=             -6.5026
  XXY=            -10.6851  XXZ=              0.0015  XZZ=            -35.5942  YZZ=             -1.5565
  YYZ=              0.0009  XYZ=             -0.0007
 Hexadecapole moment (field-independent basis, Debye-Ang**3):
 XXXX=           -415.6106 YYYY=           -128.3552 ZZZZ=            -37.9436 XXXY=            -38.4609
 XXXZ=              0.0055 YYYX=            -15.4018 YYYZ=             -0.0011 ZZZX=              0.0004
 ZZZY=             -0.0002 XXYY=           -113.1080 XXZZ=           -169.3944 YYZZ=            -39.5478
 XXYZ=             -0.0023 YYXZ=              0.0016 ZZXY=             -3.9352
 N-N= 4.454360230000D+02 E-N=-1.431258959322D+04  KE= 5.640061694343D+03
 No NMR shielding tensors so no spin-rotation constants.
 Leave Link  601 at Thu Jun 18 14:49:11 2015, MaxMem=  2147483648 cpu:         1.5
 (Enter /usr/local/bin/g09/l9999.exe)

 Test job not archived.
 1\1\GINC-CAT\SP\RBV5LYP\3-21G\C3H4Cd1N2(2+)\HAICHEN\18-Jun-2015\0\\#p 
 bv5lyp/3-21g iop(3/76=1000002000) iop(3/77=0720008000) iop(3/78=081001
 0000) guess=core\\Title Card Required\\2,1\C,0,-2.789343,0.740153,0.00
 0006\H,0,-3.699705,1.315321,0.000005\C,0,-1.489141,1.148729,-0.000011\
 H,0,-1.09568,2.150351,-0.000035\C,0,-1.505673,-1.105101,0.000008\H,0,-
 1.220972,-2.143783,-0.000073\N,0,-2.771491,-0.656327,0.000009\H,0,-3.6
 03538,-1.250416,-0.000049\Cd,0,1.426682,-0.000879,0.\N,0,-0.67935,-0.0
 19671,0.00001\\Version=ES64L-G09RevD.01\State=1-A\HF=-5666.7024808\RMS
 D=6.491e-09\Dipole=0.4103577,-0.4907966,-0.0000823\Quadrupole=23.32377
 38,-6.0987409,-17.2250329,2.6781151,0.0003733,0.0002006\PG=C01 [X(C3H4
 Cd1N2)]\\@


 ... THE UNIVERSE IS NOT ONLY QUEERER THAN WE SUPPOSE,
 BUT QUEERER THAN WE CAN SUPPOSE ... 

                                   -- J. B. S. HALDANE
 Job cpu time:       0 days  0 hours  0 minutes 30.5 seconds.
 File lengths (MBytes):  RWF=      5 Int=      0 D2E=      0 Chk=      2 Scr=      1
 Normal termination of Gaussian 09 at Thu Jun 18 14:49:12 2015.
