 Entering Gaussian System, Link 0=g09
 Input=ch3cho.gjf
 Output=ch3cho.log
 Initial command:
 /usr/local/bin/g09/l1.exe "/tmp/Gau-11498.inp" -scrdir="/tmp/"
 Default is to use a total of  12 processors:
                               12 via shared-memory
                                1 via Linda
 Entering Link 1 = /usr/local/bin/g09/l1.exe PID=     11499.
  
 Copyright (c) 1988,1990,1992,1993,1995,1998,2003,2009,2013,
            Gaussian, Inc.  All Rights Reserved.
  
 This is part of the Gaussian(R) 09 program.  It is based on
 the Gaussian(R) 03 system (copyright 2003, Gaussian, Inc.),
 the Gaussian(R) 98 system (copyright 1998, Gaussian, Inc.),
 the Gaussian(R) 94 system (copyright 1995, Gaussian, Inc.),
 the Gaussian 92(TM) system (copyright 1992, Gaussian, Inc.),
 the Gaussian 90(TM) system (copyright 1990, Gaussian, Inc.),
 the Gaussian 88(TM) system (copyright 1988, Gaussian, Inc.),
 the Gaussian 86(TM) system (copyright 1986, Carnegie Mellon
 University), and the Gaussian 82(TM) system (copyright 1983,
 Carnegie Mellon University). Gaussian is a federally registered
 trademark of Gaussian, Inc.
  
 This software contains proprietary and confidential information,
 including trade secrets, belonging to Gaussian, Inc.
  
 This software is provided under written license and may be
 used, copied, transmitted, or stored only in accord with that
 written license.
  
 The following legend is applicable only to US Government
 contracts under FAR:
  
                    RESTRICTED RIGHTS LEGEND
  
 Use, reproduction and disclosure by the US Government is
 subject to restrictions as set forth in subparagraphs (a)
 and (c) of the Commercial Computer Software - Restricted
 Rights clause in FAR 52.227-19.
  
 Gaussian, Inc.
 340 Quinnipiac St., Bldg. 40, Wallingford CT 06492
  
  
 ---------------------------------------------------------------
 Warning -- This program may not be used in any manner that
 competes with the business of Gaussian, Inc. or will provide
 assistance to any competitor of Gaussian, Inc.  The licensee
 of this program is prohibited from giving any competitor of
 Gaussian, Inc. access to this program.  By using this program,
 the user acknowledges that Gaussian, Inc. is engaged in the
 business of creating and licensing software in the field of
 computational chemistry and represents and warrants to the
 licensee that it is not a competitor of Gaussian, Inc. and that
 it will not use this program in any manner prohibited above.
 ---------------------------------------------------------------
  

 Cite this work as:
 Gaussian 09, Revision D.01,
 M. J. Frisch, G. W. Trucks, H. B. Schlegel, G. E. Scuseria, 
 M. A. Robb, J. R. Cheeseman, G. Scalmani, V. Barone, B. Mennucci, 
 G. A. Petersson, H. Nakatsuji, M. Caricato, X. Li, H. P. Hratchian, 
 A. F. Izmaylov, J. Bloino, G. Zheng, J. L. Sonnenberg, M. Hada, 
 M. Ehara, K. Toyota, R. Fukuda, J. Hasegawa, M. Ishida, T. Nakajima, 
 Y. Honda, O. Kitao, H. Nakai, T. Vreven, J. A. Montgomery, Jr., 
 J. E. Peralta, F. Ogliaro, M. Bearpark, J. J. Heyd, E. Brothers, 
 K. N. Kudin, V. N. Staroverov, T. Keith, R. Kobayashi, J. Normand, 
 K. Raghavachari, A. Rendell, J. C. Burant, S. S. Iyengar, J. Tomasi, 
 M. Cossi, N. Rega, J. M. Millam, M. Klene, J. E. Knox, J. B. Cross, 
 V. Bakken, C. Adamo, J. Jaramillo, R. Gomperts, R. E. Stratmann, 
 O. Yazyev, A. J. Austin, R. Cammi, C. Pomelli, J. W. Ochterski, 
 R. L. Martin, K. Morokuma, V. G. Zakrzewski, G. A. Voth, 
 P. Salvador, J. J. Dannenberg, S. Dapprich, A. D. Daniels, 
 O. Farkas, J. B. Foresman, J. V. Ortiz, J. Cioslowski, 
 and D. J. Fox, Gaussian, Inc., Wallingford CT, 2013.
 
 ******************************************
 Gaussian 09:  ES64L-G09RevD.01 24-Apr-2013
                19-Jun-2015 
 ******************************************
 %chk=ch3cho.chk
 -----------
 # hf/6-31g*
 -----------
 1/38=1/1;
 2/12=2,17=6,18=5,40=1/2;
 3/5=1,6=6,7=1,11=9,16=1,25=1,30=1/1,2,3;
 4//1;
 5/5=2,38=5/2;
 6/7=2,8=2,9=2,10=2,28=1/1;
 99/5=1,9=1/99;
 -------------------
 Title Card Required
 -------------------
 Symbolic Z-matrix:
 Charge =  0 Multiplicity = 1
 C                    -1.17114  -0.14855   0. 
 H                    -1.71415   0.21976  -0.88047 
 H                    -1.71369   0.21896   0.88108 
 H                    -1.15561  -1.24068  -0.0006 
 C                     0.23408   0.3996    0.00002 
 H                     0.30198   1.51163  -0.00015 
 O                     1.23798  -0.277    0. 
 
                          Input orientation:                          
 ---------------------------------------------------------------------
 Center     Atomic      Atomic             Coordinates (Angstroms)
 Number     Number       Type             X           Y           Z
 ---------------------------------------------------------------------
      1          6           0       -1.171138   -0.148546    0.000004
      2          1           0       -1.714145    0.219764   -0.880470
      3          1           0       -1.713691    0.218958    0.881075
      4          1           0       -1.155613   -1.240682   -0.000601
      5          6           0        0.234078    0.399597    0.000022
      6          1           0        0.301980    1.511628   -0.000146
      7          8           0        1.237979   -0.276996   -0.000002
 ---------------------------------------------------------------------
                    Distance matrix (angstroms):
                    1          2          3          4          5
     1  C    0.000000
     2  H    1.098063   0.000000
     3  H    1.098048   1.761545   0.000000
     4  H    1.092247   1.794166   1.794255   0.000000
     5  C    1.508341   2.145502   2.145388   2.149827   0.000000
     6  H    2.219517   2.551204   2.551563   3.114448   1.114102
     7  O    2.412539   3.120422   3.120036   2.580305   1.210618
                    6          7
     6  H    0.000000
     7  O    2.018730   0.000000
 Stoichiometry    C2H4O
 Framework group  C1[X(C2H4O)]
 Deg. of freedom    15
 Full point group                 C1      NOp   1
 Largest Abelian subgroup         C1      NOp   1
 Largest concise Abelian subgroup C1      NOp   1
                         Standard orientation:                         
 ---------------------------------------------------------------------
 Center     Atomic      Atomic             Coordinates (Angstroms)
 Number     Number       Type             X           Y           Z
 ---------------------------------------------------------------------
      1          6           0       -1.171138   -0.148546    0.000004
      2          1           0       -1.714145    0.219764   -0.880470
      3          1           0       -1.713691    0.218958    0.881075
      4          1           0       -1.155613   -1.240682   -0.000601
      5          6           0        0.234078    0.399597    0.000022
      6          1           0        0.301980    1.511628   -0.000146
      7          8           0        1.237979   -0.276996   -0.000002
 ---------------------------------------------------------------------
 Rotational constants (GHZ):     56.8825374     10.0731325      9.0361992
 Standard basis: 6-31G(d) (6D, 7F)
 There are    53 symmetry adapted cartesian basis functions of A   symmetry.
 There are    53 symmetry adapted basis functions of A   symmetry.
    53 basis functions,   100 primitive gaussians,    53 cartesian basis functions
    12 alpha electrons       12 beta electrons
       nuclear repulsion energy        69.4733608355 Hartrees.
 NAtoms=    7 NActive=    7 NUniq=    7 SFac= 1.00D+00 NAtFMM=   60 NAOKFM=F Big=F
 Integral buffers will be    131072 words long.
 Raffenetti 1 integral format.
 Two-electron integral symmetry is turned on.
 One-electron integrals computed using PRISM.
 NBasis=    53 RedAO= T EigKep=  5.69D-03  NBF=    53
 NBsUse=    53 1.00D-06 EigRej= -1.00D+00 NBFU=    53
 ExpMin= 1.61D-01 ExpMax= 5.48D+03 ExpMxC= 8.25D+02 IAcc=1 IRadAn=         1 AccDes= 0.00D+00
 Harris functional with IExCor=  205 and IRadAn=       1 diagonalized for initial guess.
 HarFok:  IExCor=  205 AccDes= 0.00D+00 IRadAn=         1 IDoV= 1 UseB2=F ITyADJ=14
 ICtDFT=  3500011 ScaDFX=  1.000000  1.000000  1.000000  1.000000
 FoFCou: FMM=F IPFlag=           0 FMFlag=      100000 FMFlg1=           0
         NFxFlg=           0 DoJE=T BraDBF=F KetDBF=T FulRan=T
         wScrn=  0.000000 ICntrl=     500 IOpCl=  0 I1Cent=   200000004 NGrid=           0
         NMat0=    1 NMatS0=      1 NMatT0=    0 NMatD0=    1 NMtDS0=    0 NMtDT0=    0
 Petite list used in FoFCou.
 Keep R1 ints in memory in canonical form, NReq=1893471.
 Requested convergence on RMS density matrix=1.00D-08 within 128 cycles.
 Requested convergence on MAX density matrix=1.00D-06.
 Requested convergence on             energy=1.00D-06.
 No special actions if energy rises.
 SCF Done:  E(RHF) =  -152.914412049     A.U. after   12 cycles
            NFock= 12  Conv=0.47D-08     -V/T= 2.0028

 **********************************************************************

            Population analysis using the SCF density.

 **********************************************************************

 Orbital symmetries:
       Occupied  (A) (A) (A) (A) (A) (A) (A) (A) (A) (A) (A) (A)
       Virtual   (A) (A) (A) (A) (A) (A) (A) (A) (A) (A) (A) (A)
                 (A) (A) (A) (A) (A) (A) (A) (A) (A) (A) (A) (A)
                 (A) (A) (A) (A) (A) (A) (A) (A) (A) (A) (A) (A)
                 (A) (A) (A) (A) (A)
 The electronic state is 1-A.
 Alpha  occ. eigenvalues --  -20.56777 -11.33954 -11.24347  -1.39107  -1.01860
 Alpha  occ. eigenvalues --   -0.79882  -0.67070  -0.62094  -0.60171  -0.55962
 Alpha  occ. eigenvalues --   -0.49976  -0.42195
 Alpha virt. eigenvalues --    0.15476   0.24590   0.27546   0.30053   0.30300
 Alpha virt. eigenvalues --    0.41953   0.44613   0.74477   0.75774   0.79234
 Alpha virt. eigenvalues --    0.80583   0.91011   0.96919   0.97606   1.10297
 Alpha virt. eigenvalues --    1.11251   1.11583   1.18666   1.19898   1.29403
 Alpha virt. eigenvalues --    1.35293   1.47990   1.66771   1.72636   1.81130
 Alpha virt. eigenvalues --    1.97954   2.10673   2.10902   2.14120   2.37412
 Alpha virt. eigenvalues --    2.37652   2.47964   2.62554   2.68690   2.88652
 Alpha virt. eigenvalues --    2.92152   3.20527   3.31749   4.22826   4.48401
 Alpha virt. eigenvalues --    4.75089
          Condensed to atoms (all electrons):
               1          2          3          4          5          6
     1  C    5.317921   0.370965   0.370964   0.373964   0.314596  -0.093613
     2  H    0.370965   0.508979  -0.025974  -0.017980  -0.028604   0.002885
     3  H    0.370964  -0.025974   0.508943  -0.017960  -0.028610   0.002885
     4  H    0.373964  -0.017980  -0.017960   0.474562  -0.031386   0.004060
     5  C    0.314596  -0.028604  -0.028610  -0.031386   4.497828   0.381274
     6  H   -0.093613   0.002885   0.002885   0.004060   0.381274   0.612500
     7  O   -0.071676   0.001186   0.001183   0.005341   0.559014  -0.051376
               7
     1  C   -0.071676
     2  H    0.001186
     3  H    0.001183
     4  H    0.005341
     5  C    0.559014
     6  H   -0.051376
     7  O    8.036991
 Mulliken charges:
               1
     1  C   -0.583122
     2  H    0.188544
     3  H    0.188568
     4  H    0.209400
     5  C    0.335888
     6  H    0.141385
     7  O   -0.480663
 Sum of Mulliken charges =   0.00000
 Mulliken charges with hydrogens summed into heavy atoms:
               1
     1  C    0.003390
     5  C    0.477273
     7  O   -0.480663
 Electronic spatial extent (au):  <R**2>=            168.4150
 Charge=              0.0000 electrons
 Dipole moment (field-independent basis, Debye):
    X=             -2.7853    Y=              1.3755    Z=              0.0001  Tot=              3.1064
 Quadrupole moment (field-independent basis, Debye-Ang):
   XX=            -21.3937   YY=            -17.7316   ZZ=            -17.8605
   XY=              1.0264   XZ=              0.0000   YZ=              0.0003
 Traceless Quadrupole moment (field-independent basis, Debye-Ang):
   XX=             -2.3984   YY=              1.2636   ZZ=              1.1348
   XY=              1.0264   XZ=              0.0000   YZ=              0.0003
 Octapole moment (field-independent basis, Debye-Ang**2):
  XXX=             -1.2963  YYY=             -0.4898  ZZZ=              0.0012  XYY=              0.9654
  XXY=              0.8879  XXZ=             -0.0002  XZZ=              0.7394  YZZ=              0.2351
  YYZ=             -0.0013  XYZ=             -0.0001
 Hexadecapole moment (field-independent basis, Debye-Ang**3):
 XXXX=           -151.3166 YYYY=            -39.4870 ZZZZ=            -22.4865 XXXY=             -1.5556
 XXXZ=              0.0009 YYYX=              0.7899 YYYZ=              0.0011 ZZZX=             -0.0020
 ZZZY=              0.0001 XXYY=            -31.4497 XXZZ=            -26.1264 YYZZ=            -11.1887
 XXYZ=             -0.0005 YYXZ=              0.0013 ZZXY=             -1.2181
 N-N= 6.947336083545D+01 E-N=-4.977987630196D+02  KE= 1.524910925511D+02
 1\1\GINC-CAT\SP\RHF\6-31G(d)\C2H4O1\HAICHEN\19-Jun-2015\0\\# hf/6-31g*
 \\Title Card Required\\0,1\C,0,-1.171138,-0.148546,0.000004\H,0,-1.714
 145,0.219764,-0.88047\H,0,-1.713691,0.218958,0.881075\H,0,-1.155613,-1
 .240682,-0.000601\C,0,0.234078,0.399597,0.000022\H,0,0.30198,1.511628,
 -0.000146\O,0,1.237979,-0.276996,-0.000002\\Version=ES64L-G09RevD.01\S
 tate=1-A\HF=-152.914412\RMSD=4.735e-09\Dipole=-1.0958119,0.5411778,0.0
 000246\Quadrupole=-1.7831485,0.9394809,0.8436677,0.7630698,-0.0000362,
 0.0001932\PG=C01 [X(C2H4O1)]\\@


 CONTRAIWISE...CONTINUED TWEEDLEDEE, IF IT WAS SO, IT MIGHT BE,
 AND IF IT WERE SO, IT WOULD BE.....
 BUT AS IT ISN'T, IT AIN'T....
 THAT'S LOGIC.....
 ALICE THROUGH THE LOOKING GLASS
 Job cpu time:       0 days  0 hours  0 minutes 10.6 seconds.
 File lengths (MBytes):  RWF=      5 Int=      0 D2E=      0 Chk=      1 Scr=      1
 Normal termination of Gaussian 09 at Fri Jun 19 00:30:22 2015.
