 Entering Gaussian System, Link 0=g09
 Input=crc3.gjf
 Output=crc3.log
 Initial command:
 /usr/local/bin/g09/l1.exe "/tmp/Gau-15056.inp" -scrdir="/tmp/"
 Default is to use a total of  12 processors:
                               12 via shared-memory
                                1 via Linda
 Entering Link 1 = /usr/local/bin/g09/l1.exe PID=     15057.
  
 Copyright (c) 1988,1990,1992,1993,1995,1998,2003,2009,2013,
            Gaussian, Inc.  All Rights Reserved.
  
 This is part of the Gaussian(R) 09 program.  It is based on
 the Gaussian(R) 03 system (copyright 2003, Gaussian, Inc.),
 the Gaussian(R) 98 system (copyright 1998, Gaussian, Inc.),
 the Gaussian(R) 94 system (copyright 1995, Gaussian, Inc.),
 the Gaussian 92(TM) system (copyright 1992, Gaussian, Inc.),
 the Gaussian 90(TM) system (copyright 1990, Gaussian, Inc.),
 the Gaussian 88(TM) system (copyright 1988, Gaussian, Inc.),
 the Gaussian 86(TM) system (copyright 1986, Carnegie Mellon
 University), and the Gaussian 82(TM) system (copyright 1983,
 Carnegie Mellon University). Gaussian is a federally registered
 trademark of Gaussian, Inc.
  
 This software contains proprietary and confidential information,
 including trade secrets, belonging to Gaussian, Inc.
  
 This software is provided under written license and may be
 used, copied, transmitted, or stored only in accord with that
 written license.
  
 The following legend is applicable only to US Government
 contracts under FAR:
  
                    RESTRICTED RIGHTS LEGEND
  
 Use, reproduction and disclosure by the US Government is
 subject to restrictions as set forth in subparagraphs (a)
 and (c) of the Commercial Computer Software - Restricted
 Rights clause in FAR 52.227-19.
  
 Gaussian, Inc.
 340 Quinnipiac St., Bldg. 40, Wallingford CT 06492
  
  
 ---------------------------------------------------------------
 Warning -- This program may not be used in any manner that
 competes with the business of Gaussian, Inc. or will provide
 assistance to any competitor of Gaussian, Inc.  The licensee
 of this program is prohibited from giving any competitor of
 Gaussian, Inc. access to this program.  By using this program,
 the user acknowledges that Gaussian, Inc. is engaged in the
 business of creating and licensing software in the field of
 computational chemistry and represents and warrants to the
 licensee that it is not a competitor of Gaussian, Inc. and that
 it will not use this program in any manner prohibited above.
 ---------------------------------------------------------------
  

 Cite this work as:
 Gaussian 09, Revision D.01,
 M. J. Frisch, G. W. Trucks, H. B. Schlegel, G. E. Scuseria, 
 M. A. Robb, J. R. Cheeseman, G. Scalmani, V. Barone, B. Mennucci, 
 G. A. Petersson, H. Nakatsuji, M. Caricato, X. Li, H. P. Hratchian, 
 A. F. Izmaylov, J. Bloino, G. Zheng, J. L. Sonnenberg, M. Hada, 
 M. Ehara, K. Toyota, R. Fukuda, J. Hasegawa, M. Ishida, T. Nakajima, 
 Y. Honda, O. Kitao, H. Nakai, T. Vreven, J. A. Montgomery, Jr., 
 J. E. Peralta, F. Ogliaro, M. Bearpark, J. J. Heyd, E. Brothers, 
 K. N. Kudin, V. N. Staroverov, T. Keith, R. Kobayashi, J. Normand, 
 K. Raghavachari, A. Rendell, J. C. Burant, S. S. Iyengar, J. Tomasi, 
 M. Cossi, N. Rega, J. M. Millam, M. Klene, J. E. Knox, J. B. Cross, 
 V. Bakken, C. Adamo, J. Jaramillo, R. Gomperts, R. E. Stratmann, 
 O. Yazyev, A. J. Austin, R. Cammi, C. Pomelli, J. W. Ochterski, 
 R. L. Martin, K. Morokuma, V. G. Zakrzewski, G. A. Voth, 
 P. Salvador, J. J. Dannenberg, S. Dapprich, A. D. Daniels, 
 O. Farkas, J. B. Foresman, J. V. Ortiz, J. Cioslowski, 
 and D. J. Fox, Gaussian, Inc., Wallingford CT, 2013.
 
 ******************************************
 Gaussian 09:  ES64L-G09RevD.01 24-Apr-2013
                18-Jun-2015 
 ******************************************
 %chk=crc3.chk
 ----------------------------------------
 #p ub3lyp/6-31g guess=core symmetry=none
 ----------------------------------------
 1/38=1/1;
 2/12=2,15=3,17=6,18=5,40=1/2;
 3/5=1,6=6,11=2,16=1,25=1,30=1,74=-5,116=2/1,2,3;
 4/5=2/1;
 5/5=2,38=5/2;
 6/7=2,8=2,9=2,10=2,28=1/1;
 99/5=1,9=1/99;
 Leave Link    1 at Thu Jun 18 14:05:28 2015, MaxMem=           0 cpu:         0.5
 (Enter /usr/local/bin/g09/l101.exe)
 -------------------
 Title Card Required
 -------------------
 Symbolic Z-matrix:
 Charge =  0 Multiplicity = 3
 Cr                    0.        0.        0. 
 C                     0.        0.        2. 
 
 NAtoms=      2 NQM=        2 NQMF=       0 NMMI=      0 NMMIF=      0
                NMic=       0 NMicF=      0.
                    Isotopes and Nuclear Properties:
 (Nuclear quadrupole moments (NQMom) in fm**2, nuclear magnetic moments (NMagM)
  in nuclear magnetons)

  Atom         1           2
 IAtWgt=          52          12
 AtmWgt=  51.9405097  12.0000000
 NucSpn=           0           0
 AtZEff=   0.0000000   0.0000000
 NQMom=    0.0000000   0.0000000
 NMagM=    0.0000000   0.0000000
 AtZNuc=  24.0000000   6.0000000
 Leave Link  101 at Thu Jun 18 14:05:28 2015, MaxMem=  2147483648 cpu:         1.2
 (Enter /usr/local/bin/g09/l202.exe)
                          Input orientation:                          
 ---------------------------------------------------------------------
 Center     Atomic      Atomic             Coordinates (Angstroms)
 Number     Number       Type             X           Y           Z
 ---------------------------------------------------------------------
      1         24           0        0.000000    0.000000    0.000000
      2          6           0        0.000000    0.000000    2.000000
 ---------------------------------------------------------------------
 Symmetry turned off by external request.
 Stoichiometry    CCr
 Rotational constants (GHZ):      0.0000000     12.9612189     12.9612189
 Leave Link  202 at Thu Jun 18 14:05:28 2015, MaxMem=  2147483648 cpu:         0.0
 (Enter /usr/local/bin/g09/l301.exe)
 Standard basis: 6-31G (6D, 7F)
 Ernie: Thresh=  0.10000D-02 Tol=  0.10000D-05 Strict=F.
    38 basis functions,   116 primitive gaussians,    38 cartesian basis functions
    16 alpha electrons       14 beta electrons
       nuclear repulsion energy        38.1007590185 Hartrees.
 IExCor=  402 DFT=T Ex+Corr=B3LYP ExCW=0 ScaHFX=  0.200000
 ScaDFX=  0.800000  0.720000  1.000000  0.810000 ScalE2=  1.000000  1.000000
 IRadAn=      0 IRanWt=     -1 IRanGd=            0 ICorTp=0 IEmpDi=  4
 NAtoms=    2 NActive=    2 NUniq=    2 SFac= 1.00D+00 NAtFMM=   60 NAOKFM=F Big=F
 Integral buffers will be    131072 words long.
 Raffenetti 2 integral format.
 Two-electron integral symmetry is turned off.
 Leave Link  301 at Thu Jun 18 14:05:28 2015, MaxMem=  2147483648 cpu:         0.6
 (Enter /usr/local/bin/g09/l302.exe)
 NPDir=0 NMtPBC=     1 NCelOv=     1 NCel=       1 NClECP=     1 NCelD=      1
         NCelK=      1 NCelE2=     1 NClLst=     1 CellRange=     0.0.
 One-electron integrals computed using PRISM.
 NBasis=    38 RedAO= T EigKep=  2.75D-03  NBF=    38
 NBsUse=    38 1.00D-06 EigRej= -1.00D+00 NBFU=    38
 Precomputing XC quadrature grid using
 IXCGrd= 4 IRadAn=           0 IRanWt=          -1 IRanGd=           0 AccXCQ= 0.00D+00.
 Generated NRdTot=       0 NPtTot=           0 NUsed=           0 NTot=          32
 NSgBfM=    38    38    38    38    38 MxSgAt=     2 MxSgA2=     2.
 Leave Link  302 at Thu Jun 18 14:05:29 2015, MaxMem=  2147483648 cpu:         5.2
 (Enter /usr/local/bin/g09/l303.exe)
 DipDrv:  MaxL=1.
 Leave Link  303 at Thu Jun 18 14:05:29 2015, MaxMem=  2147483648 cpu:         0.7
 (Enter /usr/local/bin/g09/l401.exe)
 Core hamiltonian diagonalized for initial guess.
 JPrj=0 DoOrth=F DoCkMO=F.
 Initial guess <Sx>= 0.0000 <Sy>= 0.0000 <Sz>= 1.0000 <S**2>= 2.0000 S= 1.0000
 Leave Link  401 at Thu Jun 18 14:05:29 2015, MaxMem=  2147483648 cpu:         0.7
 (Enter /usr/local/bin/g09/l502.exe)
 UHF open shell SCF:
 Using DIIS extrapolation, IDIIS=  1040.
 Two-electron integral symmetry not used.
 Keep R1 and R2 ints in memory in canonical form, NReq=1433722.
 IVT=       23570 IEndB=       23570 NGot=  2147483648 MDV=  2146910257
 LenX=  2146910257 LenY=  2146908372
 Requested convergence on RMS density matrix=1.00D-08 within 128 cycles.
 Requested convergence on MAX density matrix=1.00D-06.
 Requested convergence on             energy=1.00D-06.
 No special actions if energy rises.
 FoFCou: FMM=F IPFlag=           0 FMFlag=           0 FMFlg1=           0
         NFxFlg=           0 DoJE=F BraDBF=F KetDBF=F FulRan=T
         wScrn=  0.000000 ICntrl=     600 IOpCl=  0 I1Cent=           0 NGrid=           0
         NMat0=    1 NMatS0=    741 NMatT0=    0 NMatD0=    1 NMtDS0=    0 NMtDT0=    0
 Symmetry not used in FoFCou.

 Cycle   1  Pass 1  IDiag  1:
 E= -1034.62194361603    
 DIIS: error= 1.42D+00 at cycle   1 NSaved=   1.
 NSaved= 1 IEnMin= 1 EnMin= -1034.62194361603     IErMin= 1 ErrMin= 1.42D+00
 ErrMax= 1.42D+00  0.00D+00 EMaxC= 1.00D-01 BMatC= 1.04D+02 BMatP= 1.04D+02
 IDIUse=3 WtCom= 0.00D+00 WtEn= 1.00D+00
 Coeff-Com:  0.100D+01
 Coeff-En:   0.100D+01
 Coeff:      0.100D+01
 Gap=    -2.252 Goal=   None    Shift=    0.000
 Gap=   -18.233 Goal=   None    Shift=    0.000
 GapD=  -18.233 DampG=0.250 DampE=0.125 DampFc=0.1250 IDamp=-1.
 Damping current iteration by 1.25D-01
 RMSDP=1.61D+00 MaxDP=5.44D+01              OVMax= 1.00D+00

 Cycle   2  Pass 1  IDiag  1:
 E= -1048.48329642139     Delta-E=      -13.861352805357 Rises=F Damp=T
 DIIS: error= 1.16D+00 at cycle   2 NSaved=   2.
 NSaved= 2 IEnMin= 2 EnMin= -1048.48329642139     IErMin= 2 ErrMin= 1.16D+00
 ErrMax= 1.16D+00  0.00D+00 EMaxC= 1.00D-01 BMatC= 6.94D+01 BMatP= 1.04D+02
 IDIUse=3 WtCom= 0.00D+00 WtEn= 1.00D+00
 Coeff-Com: -0.440D+01 0.540D+01
 Coeff-En:   0.000D+00 0.100D+01
 Coeff:      0.000D+00 0.100D+01
 Gap=     0.123 Goal=   None    Shift=    0.000
 Gap=     0.170 Goal=   None    Shift=    0.000
 RMSDP=1.40D+00 MaxDP=4.76D+01 DE=-1.39D+01 OVMax= 2.12D-01

 Cycle   3  Pass 1  IDiag  1:
 E= -1003.08752328450     Delta-E=       45.395773136891 Rises=F Damp=F
 DIIS: error= 4.49D-01 at cycle   3 NSaved=   3.
 NSaved= 3 IEnMin= 2 EnMin= -1048.48329642139     IErMin= 3 ErrMin= 4.49D-01
 ErrMax= 4.49D-01  0.00D+00 EMaxC= 1.00D-01 BMatC= 3.65D+01 BMatP= 6.94D+01
 IDIUse=3 WtCom= 0.00D+00 WtEn= 1.00D+00
 Coeff-Com: -0.443D+01 0.544D+01-0.776D-02
 Coeff-En:   0.000D+00 0.683D+00 0.317D+00
 Coeff:      0.000D+00 0.683D+00 0.317D+00
 Gap=    -0.506 Goal=   None    Shift=    0.000
 Gap=    -0.061 Goal=   None    Shift=    0.000
 RMSDP=2.10D-01 MaxDP=2.40D+00 DE= 4.54D+01 OVMax= 8.76D-01

 Cycle   4  Pass 1  IDiag  1:
 E= -1080.94861239306     Delta-E=      -77.861089108558 Rises=F Damp=F
 DIIS: error= 1.18D-01 at cycle   4 NSaved=   4.
 NSaved= 4 IEnMin= 4 EnMin= -1080.94861239306     IErMin= 4 ErrMin= 1.18D-01
 ErrMax= 1.18D-01  0.00D+00 EMaxC= 1.00D-01 BMatC= 2.72D+00 BMatP= 3.65D+01
 IDIUse=3 WtCom= 0.00D+00 WtEn= 1.00D+00
 Coeff-Com: -0.228D+01 0.282D+01 0.885D-02 0.450D+00
 Coeff-En:   0.000D+00 0.000D+00 0.000D+00 0.100D+01
 Coeff:      0.000D+00 0.000D+00 0.000D+00 0.100D+01
 Gap=     0.151 Goal=   None    Shift=    0.000
 Gap=     0.130 Goal=   None    Shift=    0.000
 RMSDP=6.86D-02 MaxDP=1.26D+00 DE=-7.79D+01 OVMax= 8.67D-01

 Cycle   5  Pass 1  IDiag  1:
 E= -1075.48707512270     Delta-E=        5.461537270363 Rises=F Damp=F
 DIIS: error= 2.66D-01 at cycle   5 NSaved=   5.
 NSaved= 5 IEnMin= 4 EnMin= -1080.94861239306     IErMin= 4 ErrMin= 1.18D-01
 ErrMax= 2.66D-01  0.00D+00 EMaxC= 1.00D-01 BMatC= 1.18D+01 BMatP= 2.72D+00
 IDIUse=2 WtCom= 0.00D+00 WtEn= 1.00D+00
 Coeff-En:   0.000D+00 0.000D+00 0.000D+00 0.777D+00 0.223D+00
 Coeff:      0.000D+00 0.000D+00 0.000D+00 0.777D+00 0.223D+00
 Gap=     0.463 Goal=   None    Shift=    0.000
 Gap=     0.218 Goal=   None    Shift=    0.000
 RMSDP=6.28D-02 MaxDP=1.27D+00 DE= 5.46D+00 OVMax= 8.82D-01

 Cycle   6  Pass 1  IDiag  1:
 E= -1080.53347287479     Delta-E=       -5.046397752093 Rises=F Damp=F
 DIIS: error= 2.89D-01 at cycle   6 NSaved=   6.
 NSaved= 6 IEnMin= 4 EnMin= -1080.94861239306     IErMin= 4 ErrMin= 1.18D-01
 ErrMax= 2.89D-01  0.00D+00 EMaxC= 1.00D-01 BMatC= 1.02D+01 BMatP= 2.72D+00
 IDIUse=2 WtCom= 0.00D+00 WtEn= 1.00D+00
 EnCoef did     8 forward-backward iterations
 Coeff-En:   0.000D+00 0.000D+00 0.000D+00 0.362D+00 0.236D+00 0.402D+00
 Coeff:      0.000D+00 0.000D+00 0.000D+00 0.362D+00 0.236D+00 0.402D+00
 Gap=    -0.085 Goal=   None    Shift=    0.000
 Gap=     0.221 Goal=   None    Shift=    0.000
 RMSDP=3.93D-02 MaxDP=6.11D-01 DE=-5.05D+00 OVMax= 7.98D-01

 Cycle   7  Pass 1  IDiag  1:
 E= -1080.52654968610     Delta-E=        0.006923188692 Rises=F Damp=F
 DIIS: error= 2.40D-01 at cycle   7 NSaved=   7.
 NSaved= 7 IEnMin= 4 EnMin= -1080.94861239306     IErMin= 4 ErrMin= 1.18D-01
 ErrMax= 2.40D-01  0.00D+00 EMaxC= 1.00D-01 BMatC= 5.50D+00 BMatP= 2.72D+00
 IDIUse=2 WtCom= 0.00D+00 WtEn= 1.00D+00
 EnCoef did     1 forward-backward iterations
 Coeff-En:   0.000D+00 0.000D+00 0.000D+00 0.720D-03 0.000D+00 0.500D+00
 Coeff-En:   0.499D+00
 Coeff:      0.000D+00 0.000D+00 0.000D+00 0.720D-03 0.000D+00 0.500D+00
 Coeff:      0.499D+00
 Gap=     0.095 Goal=   None    Shift=    0.000
 Gap=     0.001 Goal=   None    Shift=    0.000
 RMSDP=2.77D-02 MaxDP=3.78D-01 DE= 6.92D-03 OVMax= 6.26D-01

 Cycle   8  Pass 1  IDiag  1:
 E= -1081.81337381416     Delta-E=       -1.286824128062 Rises=F Damp=F
 DIIS: error= 8.95D-02 at cycle   8 NSaved=   8.
 NSaved= 8 IEnMin= 8 EnMin= -1081.81337381416     IErMin= 8 ErrMin= 8.95D-02
 ErrMax= 8.95D-02  0.00D+00 EMaxC= 1.00D-01 BMatC= 9.54D-01 BMatP= 2.72D+00
 IDIUse=3 WtCom= 1.05D-01 WtEn= 8.95D-01
 EnCoef did    21 forward-backward iterations
 Coeff-Com: -0.413D+00 0.513D+00-0.190D-02-0.683D-01 0.934D-02 0.631D-01
 Coeff-Com:  0.269D+00 0.629D+00
 Coeff-En:   0.000D+00 0.000D+00 0.000D+00 0.000D+00 0.000D+00 0.168D+00
 Coeff-En:   0.327D+00 0.505D+00
 Coeff:     -0.435D-01 0.540D-01-0.201D-03-0.720D-02 0.984D-03 0.157D+00
 Coeff:      0.320D+00 0.518D+00
 Gap=     0.074 Goal=   None    Shift=    0.000
 Gap=     0.083 Goal=   None    Shift=    0.000
 RMSDP=2.52D-02 MaxDP=5.23D-01 DE=-1.29D+00 OVMax= 9.99D-01

 Cycle   9  Pass 1  IDiag  1:
 E= -1081.95381996223     Delta-E=       -0.140446148075 Rises=F Damp=F
 DIIS: error= 1.17D-01 at cycle   9 NSaved=   9.
 NSaved= 9 IEnMin= 9 EnMin= -1081.95381996223     IErMin= 8 ErrMin= 8.95D-02
 ErrMax= 1.17D-01  0.00D+00 EMaxC= 1.00D-01 BMatC= 1.22D+00 BMatP= 9.54D-01
 IDIUse=2 WtCom= 0.00D+00 WtEn= 1.00D+00
 EnCoef did     3 forward-backward iterations
 Coeff-En:   0.000D+00 0.000D+00 0.000D+00 0.000D+00 0.000D+00 0.000D+00
 Coeff-En:   0.216D+00 0.215D+00 0.569D+00
 Coeff:      0.000D+00 0.000D+00 0.000D+00 0.000D+00 0.000D+00 0.000D+00
 Coeff:      0.216D+00 0.215D+00 0.569D+00
 Gap=     0.003 Goal=   None    Shift=    0.000
 Gap=     0.203 Goal=   None    Shift=    0.000
 RMSDP=2.29D-02 MaxDP=5.23D-01 DE=-1.40D-01 OVMax= 9.94D-01

 Cycle  10  Pass 1  IDiag  1:
 E= -1081.99970658231     Delta-E=       -0.045886620081 Rises=F Damp=F
 DIIS: error= 9.67D-02 at cycle  10 NSaved=  10.
 NSaved=10 IEnMin=10 EnMin= -1081.99970658231     IErMin= 8 ErrMin= 8.95D-02
 ErrMax= 9.67D-02  0.00D+00 EMaxC= 1.00D-01 BMatC= 9.25D-01 BMatP= 9.54D-01
 IDIUse=3 WtCom= 1.05D-01 WtEn= 8.95D-01
 EnCoef did     5 forward-backward iterations
 Coeff-Com: -0.846D-01 0.106D+00 0.244D-03-0.313D-01-0.448D-02-0.772D-01
 Coeff-Com: -0.613D-01 0.194D+00 0.439D+00 0.520D+00
 Coeff-En:   0.000D+00 0.000D+00 0.000D+00 0.000D+00 0.000D+00 0.000D+00
 Coeff-En:   0.000D+00 0.593D-01 0.415D+00 0.526D+00
 Coeff:     -0.892D-02 0.111D-01 0.258D-04-0.330D-02-0.472D-03-0.814D-02
 Coeff:     -0.646D-02 0.734D-01 0.418D+00 0.525D+00
 Gap=    -0.004 Goal=   None    Shift=    0.000
 Gap=     0.064 Goal=   None    Shift=    0.000
 RMSDP=2.14D-02 MaxDP=4.91D-01 DE=-4.59D-02 OVMax= 1.00D+00

 Cycle  11  Pass 1  IDiag  1:
 E= -1081.95229216234     Delta-E=        0.047414419971 Rises=F Damp=F
 DIIS: error= 9.15D-02 at cycle  11 NSaved=  11.
 NSaved=11 IEnMin=10 EnMin= -1081.99970658231     IErMin= 8 ErrMin= 8.95D-02
 ErrMax= 9.15D-02  0.00D+00 EMaxC= 1.00D-01 BMatC= 1.19D+00 BMatP= 9.25D-01
 IDIUse=2 WtCom= 0.00D+00 WtEn= 1.00D+00
 Coeff-En:   0.000D+00 0.000D+00 0.000D+00 0.000D+00 0.000D+00 0.000D+00
 Coeff-En:   0.000D+00 0.000D+00 0.000D+00 0.531D+00 0.469D+00
 Coeff:      0.000D+00 0.000D+00 0.000D+00 0.000D+00 0.000D+00 0.000D+00
 Coeff:      0.000D+00 0.000D+00 0.000D+00 0.531D+00 0.469D+00
 Gap=     0.007 Goal=   None    Shift=    0.000
 Gap=     0.090 Goal=   None    Shift=    0.000
 RMSDP=8.23D-03 MaxDP=1.12D-01 DE= 4.74D-02 OVMax= 2.50D-01

 Cycle  12  Pass 1  IDiag  1:
 E= -1082.19572074520     Delta-E=       -0.243428582861 Rises=F Damp=F
 DIIS: error= 3.79D-02 at cycle  12 NSaved=  12.
 NSaved=12 IEnMin=12 EnMin= -1082.19572074520     IErMin=12 ErrMin= 3.79D-02
 ErrMax= 3.79D-02  0.00D+00 EMaxC= 1.00D-01 BMatC= 9.70D-02 BMatP= 9.25D-01
 IDIUse=3 WtCom= 6.21D-01 WtEn= 3.79D-01
 Coeff-Com: -0.158D-01 0.188D-01 0.612D-03-0.269D-03 0.234D-03 0.483D-01
 Coeff-Com: -0.372D-01 0.146D+00-0.304D+00 0.218D+00 0.286D-01 0.896D+00
 Coeff-En:   0.000D+00 0.000D+00 0.000D+00 0.000D+00 0.000D+00 0.000D+00
 Coeff-En:   0.000D+00 0.000D+00 0.000D+00 0.141D-01 0.000D+00 0.986D+00
 Coeff:     -0.980D-02 0.117D-01 0.380D-03-0.167D-03 0.145D-03 0.300D-01
 Coeff:     -0.231D-01 0.910D-01-0.189D+00 0.141D+00 0.178D-01 0.930D+00
 Gap=     0.020 Goal=   None    Shift=    0.000
 Gap=     0.063 Goal=   None    Shift=    0.000
 RMSDP=7.49D-03 MaxDP=6.93D-02 DE=-2.43D-01 OVMax= 1.93D-01

 Cycle  13  Pass 1  IDiag  1:
 E= -1082.22871434382     Delta-E=       -0.032993598617 Rises=F Damp=F
 DIIS: error= 1.05D-02 at cycle  13 NSaved=  13.
 NSaved=13 IEnMin=13 EnMin= -1082.22871434382     IErMin=13 ErrMin= 1.05D-02
 ErrMax= 1.05D-02  0.00D+00 EMaxC= 1.00D-01 BMatC= 1.04D-02 BMatP= 9.70D-02
 IDIUse=3 WtCom= 8.95D-01 WtEn= 1.05D-01
 Coeff-Com: -0.214D-02 0.294D-02-0.420D-04 0.569D-02 0.170D-02 0.139D-01
 Coeff-Com:  0.209D-02 0.264D-01-0.535D-02 0.924D-02-0.117D+00 0.277D+00
 Coeff-Com:  0.785D+00
 Coeff-En:   0.000D+00 0.000D+00 0.000D+00 0.000D+00 0.000D+00 0.000D+00
 Coeff-En:   0.000D+00 0.000D+00 0.000D+00 0.000D+00 0.000D+00 0.000D+00
 Coeff-En:   0.100D+01
 Coeff:     -0.192D-02 0.263D-02-0.376D-04 0.509D-02 0.152D-02 0.124D-01
 Coeff:      0.187D-02 0.236D-01-0.478D-02 0.827D-02-0.104D+00 0.248D+00
 Coeff:      0.808D+00
 Gap=     0.054 Goal=   None    Shift=    0.000
 Gap=     0.079 Goal=   None    Shift=    0.000
 RMSDP=2.24D-03 MaxDP=3.23D-02 DE=-3.30D-02 OVMax= 6.38D-02

 Cycle  14  Pass 1  IDiag  1:
 E= -1082.23401644928     Delta-E=       -0.005302105456 Rises=F Damp=F
 DIIS: error= 4.74D-03 at cycle  14 NSaved=  14.
 NSaved=14 IEnMin=14 EnMin= -1082.23401644928     IErMin=14 ErrMin= 4.74D-03
 ErrMax= 4.74D-03  0.00D+00 EMaxC= 1.00D-01 BMatC= 1.75D-03 BMatP= 1.04D-02
 IDIUse=3 WtCom= 9.53D-01 WtEn= 4.74D-02
 Coeff-Com: -0.197D-02 0.244D-02-0.177D-03 0.172D-02 0.407D-03-0.191D-02
 Coeff-Com:  0.800D-02-0.616D-02 0.361D-01-0.301D-01-0.196D-01-0.216D+00
 Coeff-Com:  0.689D-01 0.116D+01
 Coeff-En:   0.000D+00 0.000D+00 0.000D+00 0.000D+00 0.000D+00 0.000D+00
 Coeff-En:   0.000D+00 0.000D+00 0.000D+00 0.000D+00 0.000D+00 0.000D+00
 Coeff-En:   0.000D+00 0.100D+01
 Coeff:     -0.188D-02 0.232D-02-0.169D-03 0.164D-02 0.388D-03-0.182D-02
 Coeff:      0.762D-02-0.587D-02 0.344D-01-0.287D-01-0.187D-01-0.206D+00
 Coeff:      0.656D-01 0.115D+01
 Gap=     0.061 Goal=   None    Shift=    0.000
 Gap=     0.079 Goal=   None    Shift=    0.000
 RMSDP=2.33D-03 MaxDP=2.39D-02 DE=-5.30D-03 OVMax= 8.48D-02

 Cycle  15  Pass 1  IDiag  1:
 E= -1082.23543503036     Delta-E=       -0.001418581084 Rises=F Damp=F
 DIIS: error= 3.57D-03 at cycle  15 NSaved=  15.
 NSaved=15 IEnMin=15 EnMin= -1082.23543503036     IErMin=15 ErrMin= 3.57D-03
 ErrMax= 3.57D-03  0.00D+00 EMaxC= 1.00D-01 BMatC= 1.19D-03 BMatP= 1.75D-03
 IDIUse=3 WtCom= 9.64D-01 WtEn= 3.57D-02
 Coeff-Com:  0.466D-04-0.699D-04-0.478D-04 0.238D-02 0.284D-03-0.835D-03
 Coeff-Com:  0.717D-02-0.117D-02 0.269D-01-0.198D-01-0.318D-01-0.871D-01
 Coeff-Com:  0.308D-01 0.598D+00 0.475D+00
 Coeff-En:   0.000D+00 0.000D+00 0.000D+00 0.000D+00 0.000D+00 0.000D+00
 Coeff-En:   0.000D+00 0.000D+00 0.000D+00 0.000D+00 0.000D+00 0.000D+00
 Coeff-En:   0.000D+00 0.000D+00 0.100D+01
 Coeff:      0.449D-04-0.674D-04-0.461D-04 0.230D-02 0.274D-03-0.805D-03
 Coeff:      0.691D-02-0.113D-02 0.259D-01-0.191D-01-0.307D-01-0.840D-01
 Coeff:      0.297D-01 0.577D+00 0.494D+00
 Gap=     0.056 Goal=   None    Shift=    0.000
 Gap=     0.083 Goal=   None    Shift=    0.000
 RMSDP=7.32D-04 MaxDP=1.00D-02 DE=-1.42D-03 OVMax= 2.64D-02

 Cycle  16  Pass 1  IDiag  1:
 E= -1082.23615498267     Delta-E=       -0.000719952313 Rises=F Damp=F
 DIIS: error= 1.11D-03 at cycle  16 NSaved=  16.
 NSaved=16 IEnMin=16 EnMin= -1082.23615498267     IErMin=16 ErrMin= 1.11D-03
 ErrMax= 1.11D-03  0.00D+00 EMaxC= 1.00D-01 BMatC= 8.29D-05 BMatP= 1.19D-03
 IDIUse=3 WtCom= 9.89D-01 WtEn= 1.11D-02
 Coeff-Com:  0.484D-03-0.583D-03 0.246D-04 0.162D-02-0.211D-03 0.317D-03
 Coeff-Com:  0.350D-02-0.350D-02 0.726D-02-0.119D-01-0.571D-02-0.171D-01
 Coeff-Com:  0.362D-02-0.270D-02-0.135D+00 0.116D+01
 Coeff-En:   0.000D+00 0.000D+00 0.000D+00 0.000D+00 0.000D+00 0.000D+00
 Coeff-En:   0.000D+00 0.000D+00 0.000D+00 0.000D+00 0.000D+00 0.000D+00
 Coeff-En:   0.000D+00 0.000D+00 0.000D+00 0.100D+01
 Coeff:      0.478D-03-0.576D-03 0.243D-04 0.160D-02-0.209D-03 0.313D-03
 Coeff:      0.346D-02-0.346D-02 0.718D-02-0.118D-01-0.564D-02-0.169D-01
 Coeff:      0.357D-02-0.267D-02-0.133D+00 0.116D+01
 Gap=     0.054 Goal=   None    Shift=    0.000
 Gap=     0.084 Goal=   None    Shift=    0.000
 DSYEVD-2 returned Info=          77 IAlg= 4 N=    38 NDim=    38 NE2=    56497587 trying  DSYEV.
 RMSDP=1.69D-03 MaxDP=2.10D-02 DE=-7.20D-04 OVMax= 7.37D-02

 Cycle  17  Pass 1  IDiag  1:
 E= -1082.23691272746     Delta-E=       -0.000757744783 Rises=F Damp=F
 DIIS: error= 1.42D-03 at cycle  17 NSaved=  17.
 NSaved=17 IEnMin=17 EnMin= -1082.23691272746     IErMin=16 ErrMin= 1.11D-03
 ErrMax= 1.42D-03  0.00D+00 EMaxC= 1.00D-01 BMatC= 2.12D-04 BMatP= 8.29D-05
 IDIUse=3 WtCom= 9.89D-01 WtEn= 1.11D-02
 Coeff-Com:  0.388D-03-0.467D-03 0.182D-04 0.185D-02-0.258D-03 0.464D-03
 Coeff-Com:  0.367D-02-0.388D-02 0.547D-02-0.125D-01-0.476D-02-0.986D-02
 Coeff-Com: -0.108D-01 0.412D-01-0.962D-02 0.658D+00 0.341D+00
 Coeff-En:   0.000D+00 0.000D+00 0.000D+00 0.000D+00 0.000D+00 0.000D+00
 Coeff-En:   0.000D+00 0.000D+00 0.000D+00 0.000D+00 0.000D+00 0.000D+00
 Coeff-En:   0.000D+00 0.000D+00 0.000D+00 0.000D+00 0.100D+01
 Coeff:      0.383D-03-0.462D-03 0.180D-04 0.183D-02-0.256D-03 0.459D-03
 Coeff:      0.363D-02-0.383D-02 0.541D-02-0.124D-01-0.471D-02-0.975D-02
 Coeff:     -0.107D-01 0.408D-01-0.952D-02 0.650D+00 0.349D+00
 Gap=     0.055 Goal=   None    Shift=    0.000
 Gap=     0.084 Goal=   None    Shift=    0.000
 RMSDP=4.52D-04 MaxDP=5.91D-03 DE=-7.58D-04 OVMax= 1.97D-02

 Cycle  18  Pass 1  IDiag  1:
 E= -1082.23712736312     Delta-E=       -0.000214635660 Rises=F Damp=F
 DIIS: error= 1.51D-03 at cycle  18 NSaved=  18.
 NSaved=18 IEnMin=18 EnMin= -1082.23712736312     IErMin=16 ErrMin= 1.11D-03
 ErrMax= 1.51D-03  0.00D+00 EMaxC= 1.00D-01 BMatC= 2.30D-04 BMatP= 8.29D-05
 IDIUse=3 WtCom= 9.89D-01 WtEn= 1.11D-02
 Coeff-Com:  0.700D-03-0.846D-03 0.189D-04 0.156D-02-0.218D-03 0.901D-04
 Coeff-Com:  0.352D-02-0.304D-02 0.783D-02-0.113D-01-0.570D-02-0.110D-01
 Coeff-Com: -0.479D-02 0.470D-02-0.164D+00 0.850D+00 0.440D+01-0.407D+01
 Coeff-En:   0.000D+00 0.000D+00 0.000D+00 0.000D+00 0.000D+00 0.000D+00
 Coeff-En:   0.000D+00 0.000D+00 0.000D+00 0.000D+00 0.000D+00 0.000D+00
 Coeff-En:   0.000D+00 0.000D+00 0.000D+00 0.000D+00 0.000D+00 0.100D+01
 Coeff:      0.693D-03-0.837D-03 0.187D-04 0.154D-02-0.215D-03 0.891D-04
 Coeff:      0.348D-02-0.300D-02 0.774D-02-0.112D-01-0.564D-02-0.108D-01
 Coeff:     -0.473D-02 0.464D-02-0.162D+00 0.840D+00 0.436D+01-0.402D+01
 Gap=     0.053 Goal=   None    Shift=    0.000
 Gap=     0.083 Goal=   None    Shift=    0.000
 RMSDP=1.77D-03 MaxDP=2.28D-02 DE=-2.15D-04 OVMax= 7.72D-02

 Cycle  19  Pass 1  IDiag  1:
 E= -1082.23627841148     Delta-E=        0.000848951634 Rises=F Damp=F
 DIIS: error= 1.83D-03 at cycle  19 NSaved=  19.
 NSaved=19 IEnMin=18 EnMin= -1082.23712736312     IErMin=16 ErrMin= 1.11D-03
 ErrMax= 1.83D-03  0.00D+00 EMaxC= 1.00D-01 BMatC= 2.97D-04 BMatP= 8.29D-05
 IDIUse=3 WtCom= 9.89D-01 WtEn= 1.11D-02
 Rare condition: small coef for last iteration:  0.000D+00
 Coeff-Com:  0.217D-03-0.279D-03 0.208D-04 0.171D-02-0.634D-03 0.226D-03
 Coeff-Com:  0.376D-02-0.400D-02 0.232D-02-0.121D-01 0.177D-02 0.150D-01
 Coeff-Com: -0.660D-01-0.134D+00 0.836D-02 0.141D+01 0.143D+01-0.639D+01
 Coeff-Com:  0.473D+01
 Coeff-En:   0.000D+00 0.000D+00 0.000D+00 0.000D+00 0.000D+00 0.000D+00
 Coeff-En:   0.000D+00 0.000D+00 0.000D+00 0.000D+00 0.000D+00 0.000D+00
 Coeff-En:   0.000D+00 0.000D+00 0.000D+00 0.000D+00 0.000D+00 0.000D+00
 Coeff-En:   0.100D+01
 Coeff:      0.217D-03-0.279D-03 0.208D-04 0.171D-02-0.634D-03 0.226D-03
 Coeff:      0.376D-02-0.400D-02 0.232D-02-0.121D-01 0.177D-02 0.150D-01
 Coeff:     -0.660D-01-0.134D+00 0.836D-02 0.141D+01 0.143D+01-0.639D+01
 Coeff:      0.473D+01
 Gap=     0.049 Goal=   None    Shift=    0.000
 Gap=     0.079 Goal=   None    Shift=    0.000
 RMSDP=7.26D-03 MaxDP=9.64D-02 DE= 8.49D-04 OVMax= 3.00D-01

 Cycle  20  Pass 1  IDiag  1:
 E= -1082.23169745707     Delta-E=        0.004580954416 Rises=F Damp=F
 DIIS: error= 9.81D-03 at cycle  20 NSaved=  20.
 NSaved=20 IEnMin=18 EnMin= -1082.23712736312     IErMin=16 ErrMin= 1.11D-03
 ErrMax= 9.81D-03  0.00D+00 EMaxC= 1.00D-01 BMatC= 6.70D-03 BMatP= 8.29D-05
 IDIUse=3 WtCom= 9.89D-01 WtEn= 1.11D-02
 Large coefficients: NSaved= 20 BigCof=   11.93 CofMax=   10.00 Det=-5.66D-08
 Inversion failed.  Reducing to 19 matrices.
 Large coefficients: NSaved= 19 BigCof=   11.92 CofMax=   10.00 Det=-5.66D-08
 Inversion failed.  Reducing to 18 matrices.
 Large coefficients: NSaved= 18 BigCof=   11.97 CofMax=   10.00 Det=-5.70D-08
 Inversion failed.  Reducing to 17 matrices.
 Large coefficients: NSaved= 17 BigCof=   11.98 CofMax=   10.00 Det=-5.71D-08
 Inversion failed.  Reducing to 16 matrices.
 Large coefficients: NSaved= 16 BigCof=   12.12 CofMax=   10.00 Det=-5.86D-08
 Inversion failed.  Reducing to 15 matrices.
 Large coefficients: NSaved= 15 BigCof=   12.32 CofMax=   10.00 Det=-5.90D-08
 Inversion failed.  Reducing to 14 matrices.
 Large coefficients: NSaved= 14 BigCof=   13.22 CofMax=   10.00 Det=-6.29D-08
 Inversion failed.  Reducing to 13 matrices.
 Large coefficients: NSaved= 13 BigCof=   13.68 CofMax=   10.00 Det=-6.43D-08
 Inversion failed.  Reducing to 12 matrices.
 Large coefficients: NSaved= 12 BigCof=   14.22 CofMax=   10.00 Det=-6.75D-08
 Inversion failed.  Reducing to 11 matrices.
 Large coefficients: NSaved= 11 BigCof=   14.06 CofMax=   10.00 Det=-6.35D-08
 Inversion failed.  Reducing to 10 matrices.
 Large coefficients: NSaved= 10 BigCof=   13.85 CofMax=   10.00 Det=-6.39D-08
 Inversion failed.  Reducing to  9 matrices.
 Large coefficients: NSaved=  9 BigCof=   14.20 CofMax=   10.00 Det=-6.61D-08
 Inversion failed.  Reducing to  8 matrices.
 Large coefficients: NSaved=  8 BigCof=   14.06 CofMax=   10.00 Det=-6.62D-08
 Inversion failed.  Reducing to  7 matrices.
 Large coefficients: NSaved=  7 BigCof=   14.23 CofMax=   10.00 Det=-7.14D-08
 Inversion failed.  Reducing to  6 matrices.
 Large coefficients: NSaved=  6 BigCof=   13.77 CofMax=   10.00 Det=-7.19D-08
 Inversion failed.  Reducing to  5 matrices.
 Large coefficients: NSaved=  5 BigCof=   13.59 CofMax=   10.00 Det=-1.12D-07
 Inversion failed.  Reducing to  4 matrices.
 Large coefficients: NSaved=  4 BigCof=   12.91 CofMax=   10.00 Det=-1.49D-07
 Inversion failed.  Reducing to  3 matrices.
 Rare condition: small coef for last iteration:  0.000D+00
 Coeff-Com: -0.169D+01 0.299D+01-0.300D+00
 Coeff-En:   0.000D+00 0.000D+00 0.100D+01
 Coeff:     -0.169D+01 0.299D+01-0.300D+00
 Gap=     0.047 Goal=   None    Shift=    0.000
 Gap=     0.079 Goal=   None    Shift=    0.000
 RMSDP=7.87D-03 MaxDP=1.04D-01 DE= 4.58D-03 OVMax= 3.29D-01

 Cycle  21  Pass 1  IDiag  1:
 E= -1082.23642909121     Delta-E=       -0.004731634144 Rises=F Damp=F
 DIIS: error= 2.46D-03 at cycle  21 NSaved=   4.
 NSaved= 4 IEnMin= 1 EnMin= -1082.23712736312     IErMin= 1 ErrMin= 1.51D-03
 ErrMax= 2.46D-03  0.00D+00 EMaxC= 1.00D-01 BMatC= 6.42D-04 BMatP= 2.30D-04
 IDIUse=3 WtCom= 9.89D-01 WtEn= 1.11D-02
 Coeff-Com: -0.548D+01 0.649D+01-0.492D+00 0.477D+00
 Coeff-En:   0.000D+00 0.000D+00 0.000D+00 0.100D+01
 Coeff:     -0.542D+01 0.642D+01-0.487D+00 0.483D+00
 Gap=     0.049 Goal=   None    Shift=    0.000
 Gap=     0.078 Goal=   None    Shift=    0.000
 RMSDP=4.77D-03 MaxDP=5.89D-02 DE=-4.73D-03 OVMax= 2.01D-01

 Cycle  22  Pass 1  IDiag  1:
 E= -1082.23363656089     Delta-E=        0.002792530323 Rises=F Damp=F
 DIIS: error= 7.14D-03 at cycle  22 NSaved=   5.
 NSaved= 5 IEnMin= 1 EnMin= -1082.23712736312     IErMin= 1 ErrMin= 1.51D-03
 ErrMax= 7.14D-03  0.00D+00 EMaxC= 1.00D-01 BMatC= 3.67D-03 BMatP= 2.30D-04
 IDIUse=3 WtCom= 9.89D-01 WtEn= 1.11D-02
 Rare condition: small coef for last iteration:  0.000D+00
 Coeff-Com: -0.535D+01 0.638D+01-0.513D+00 0.445D+00 0.427D-01
 Coeff-En:   0.000D+00 0.000D+00 0.000D+00 0.000D+00 0.100D+01
 Coeff:     -0.535D+01 0.638D+01-0.513D+00 0.445D+00 0.427D-01
 Gap=     0.051 Goal=   None    Shift=    0.000
 Gap=     0.079 Goal=   None    Shift=    0.000
 RMSDP=9.67D-05 MaxDP=1.33D-03 DE= 2.79D-03 OVMax= 4.10D-03

 Cycle  23  Pass 1  IDiag  1:
 E= -1082.23367142299     Delta-E=       -0.000034862099 Rises=F Damp=F
 DIIS: error= 7.14D-03 at cycle  23 NSaved=   6.
 NSaved= 6 IEnMin= 1 EnMin= -1082.23712736312     IErMin= 1 ErrMin= 1.51D-03
 ErrMax= 7.14D-03  0.00D+00 EMaxC= 1.00D-01 BMatC= 3.67D-03 BMatP= 2.30D-04
 IDIUse=3 WtCom= 9.89D-01 WtEn= 1.11D-02
 Large coefficients: NSaved=  6 BigCof=   19.06 CofMax=   10.00 Det=-1.70D-08
 Inversion failed.  Reducing to  5 matrices.
 Large coefficients: NSaved=  5 BigCof=   12.54 CofMax=   10.00 Det=-1.89D-08
 Inversion failed.  Reducing to  4 matrices.
 Coeff-Com:  0.953D+00 0.392D+00 0.428D+01-0.463D+01
 Coeff-En:   0.000D+00 0.000D+00 0.000D+00 0.100D+01
 Coeff:      0.943D+00 0.387D+00 0.423D+01-0.456D+01
 Gap=     0.051 Goal=   None    Shift=    0.000
 Gap=     0.084 Goal=   None    Shift=    0.000
 RMSDP=8.36D-03 MaxDP=1.02D-01 DE=-3.49D-05 OVMax= 3.55D-01

 Cycle  24  Pass 1  IDiag  1:
 E= -1082.23838348086     Delta-E=       -0.004712057878 Rises=F Damp=F
 DIIS: error= 2.49D-03 at cycle  24 NSaved=   5.
 NSaved= 5 IEnMin= 5 EnMin= -1082.23838348086     IErMin= 1 ErrMin= 1.51D-03
 ErrMax= 2.49D-03  0.00D+00 EMaxC= 1.00D-01 BMatC= 5.19D-04 BMatP= 2.30D-04
 IDIUse=3 WtCom= 9.89D-01 WtEn= 1.11D-02
 Coeff-Com:  0.387D+00 0.496D+00 0.429D+01-0.476D+01 0.589D+00
 Coeff-En:   0.000D+00 0.000D+00 0.000D+00 0.000D+00 0.100D+01
 Coeff:      0.383D+00 0.490D+00 0.424D+01-0.470D+01 0.594D+00
 Gap=     0.062 Goal=   None    Shift=    0.000
 Gap=     0.089 Goal=   None    Shift=    0.000
 RMSDP=2.12D-03 MaxDP=3.03D-02 DE=-4.71D-03 OVMax= 9.26D-02

 Cycle  25  Pass 1  IDiag  1:
 E= -1082.23922967039     Delta-E=       -0.000846189522 Rises=F Damp=F
 DIIS: error= 3.83D-03 at cycle  25 NSaved=   6.
 NSaved= 6 IEnMin= 6 EnMin= -1082.23922967039     IErMin= 1 ErrMin= 1.51D-03
 ErrMax= 3.83D-03  0.00D+00 EMaxC= 1.00D-01 BMatC= 1.09D-03 BMatP= 2.30D-04
 IDIUse=3 WtCom= 9.89D-01 WtEn= 1.11D-02
 Large coefficients: NSaved=  6 BigCof=   30.99 CofMax=   10.00 Det=-1.04D-08
 Inversion failed.  Reducing to  5 matrices.
 Coeff-Com:  0.156D+01 0.425D+00-0.489D+00-0.154D+01 0.104D+01
 Coeff-En:   0.000D+00 0.000D+00 0.000D+00 0.000D+00 0.100D+01
 Coeff:      0.154D+01 0.420D+00-0.483D+00-0.152D+01 0.104D+01
 Gap=     0.062 Goal=   None    Shift=    0.000
 Gap=     0.089 Goal=   None    Shift=    0.000
 RMSDP=1.65D-04 MaxDP=1.99D-03 DE=-8.46D-04 OVMax= 7.44D-03

 Cycle  26  Pass 1  IDiag  1:
 E= -1082.23921254629     Delta-E=        0.000017124099 Rises=F Damp=F
 DIIS: error= 3.40D-03 at cycle  26 NSaved=   6.
 NSaved= 6 IEnMin= 5 EnMin= -1082.23922967039     IErMin= 1 ErrMin= 1.51D-03
 ErrMax= 3.40D-03  0.00D+00 EMaxC= 1.00D-01 BMatC= 8.69D-04 BMatP= 2.30D-04
 IDIUse=3 WtCom= 9.89D-01 WtEn= 1.11D-02
 Rare condition: small coef for last iteration:  0.000D+00
 Coeff-Com:  0.164D+01 0.205D+00-0.444D+00-0.184D+01-0.378D-01 0.148D+01
 Coeff-En:   0.000D+00 0.000D+00 0.000D+00 0.000D+00 0.000D+00 0.100D+01
 Coeff:      0.164D+01 0.205D+00-0.444D+00-0.184D+01-0.378D-01 0.148D+01
 Gap=     0.064 Goal=   None    Shift=    0.000
 Gap=     0.090 Goal=   None    Shift=    0.000
 RMSDP=7.73D-04 MaxDP=1.14D-02 DE= 1.71D-05 OVMax= 3.26D-02

 Cycle  27  Pass 1  IDiag  1:
 E= -1082.23952726362     Delta-E=       -0.000314717330 Rises=F Damp=F
 DIIS: error= 3.57D-03 at cycle  27 NSaved=   7.
 NSaved= 7 IEnMin= 7 EnMin= -1082.23952726362     IErMin= 1 ErrMin= 1.51D-03
 ErrMax= 3.57D-03  0.00D+00 EMaxC= 1.00D-01 BMatC= 9.34D-04 BMatP= 2.30D-04
 IDIUse=3 WtCom= 9.89D-01 WtEn= 1.11D-02
 Large coefficients: NSaved=  7 BigCof=   19.55 CofMax=   10.00 Det=-5.64D-08
 Inversion failed.  Reducing to  6 matrices.
 Large coefficients: NSaved=  6 BigCof=   19.64 CofMax=   10.00 Det=-6.11D-08
 Inversion failed.  Reducing to  5 matrices.
 Large coefficients: NSaved=  5 BigCof=   14.31 CofMax=   10.00 Det=-4.69D-07
 Inversion failed.  Reducing to  4 matrices.
 Large coefficients: NSaved=  4 BigCof=   14.64 CofMax=   10.00 Det=-5.88D-07
 Inversion failed.  Reducing to  3 matrices.
 Coeff-Com: -0.924D+01 0.923D+00 0.932D+01
 Coeff-En:   0.000D+00 0.000D+00 0.100D+01
 Coeff:     -0.914D+01 0.913D+00 0.923D+01
 Gap=     0.081 Goal=   None    Shift=    0.000
 Gap=     0.104 Goal=   None    Shift=    0.000
 RMSDP=5.12D-03 MaxDP=7.79D-02 DE=-3.15D-04 OVMax= 2.03D-01

 Cycle  28  Pass 1  IDiag  1:
 E= -1082.24087199550     Delta-E=       -0.001344731884 Rises=F Damp=F
 DIIS: error= 1.88D-03 at cycle  28 NSaved=   4.
 NSaved= 4 IEnMin= 4 EnMin= -1082.24087199550     IErMin= 4 ErrMin= 1.88D-03
 ErrMax= 1.88D-03  0.00D+00 EMaxC= 1.00D-01 BMatC= 6.64D-04 BMatP= 8.69D-04
 IDIUse=3 WtCom= 9.89D-01 WtEn= 1.11D-02
 Coeff-Com: -0.696D+01 0.348D+01 0.397D+01 0.505D+00
 Coeff-En:   0.000D+00 0.000D+00 0.000D+00 0.100D+01
 Coeff:     -0.688D+01 0.344D+01 0.393D+01 0.510D+00
 Gap=     0.070 Goal=   None    Shift=    0.000
 Gap=     0.100 Goal=   None    Shift=    0.000
 RMSDP=5.11D-04 MaxDP=7.59D-03 DE=-1.34D-03 OVMax= 1.72D-02

 Cycle  29  Pass 1  IDiag  1:
 E= -1082.24103457038     Delta-E=       -0.000162574874 Rises=F Damp=F
 DIIS: error= 1.45D-03 at cycle  29 NSaved=   5.
 NSaved= 5 IEnMin= 5 EnMin= -1082.24103457038     IErMin= 5 ErrMin= 1.45D-03
 ErrMax= 1.45D-03  0.00D+00 EMaxC= 1.00D-01 BMatC= 1.42D-04 BMatP= 6.64D-04
 IDIUse=3 WtCom= 9.89D-01 WtEn= 1.11D-02
 Coeff-Com:  0.441D+00 0.256D+01-0.353D+01 0.818D-01 0.145D+01
 Coeff-En:   0.000D+00 0.000D+00 0.000D+00 0.000D+00 0.100D+01
 Coeff:      0.436D+00 0.253D+01-0.349D+01 0.809D-01 0.144D+01
 Gap=     0.067 Goal=   None    Shift=    0.000
 Gap=     0.102 Goal=   None    Shift=    0.000
 RMSDP=7.28D-04 MaxDP=1.07D-02 DE=-1.63D-04 OVMax= 2.89D-02

 Cycle  30  Pass 1  IDiag  1:
 E= -1082.24113276828     Delta-E=       -0.000098197908 Rises=F Damp=F
 DIIS: error= 4.06D-04 at cycle  30 NSaved=   6.
 NSaved= 6 IEnMin= 6 EnMin= -1082.24113276828     IErMin= 6 ErrMin= 4.06D-04
 ErrMax= 4.06D-04  0.00D+00 EMaxC= 1.00D-01 BMatC= 1.57D-05 BMatP= 1.42D-04
 IDIUse=3 WtCom= 9.96D-01 WtEn= 4.06D-03
 Coeff-Com:  0.942D+00-0.114D-01-0.125D+01-0.192D-02 0.328D+00 0.994D+00
 Coeff-En:   0.000D+00 0.000D+00 0.000D+00 0.000D+00 0.000D+00 0.100D+01
 Coeff:      0.938D+00-0.114D-01-0.125D+01-0.191D-02 0.326D+00 0.994D+00
 Gap=     0.070 Goal=   None    Shift=    0.000
 Gap=     0.104 Goal=   None    Shift=    0.000
 RMSDP=9.52D-04 MaxDP=1.40D-02 DE=-9.82D-05 OVMax= 3.85D-02

 Cycle  31  Pass 1  IDiag  1:
 E= -1082.24117097307     Delta-E=       -0.000038204782 Rises=F Damp=F
 DIIS: error= 6.40D-05 at cycle  31 NSaved=   7.
 NSaved= 7 IEnMin= 7 EnMin= -1082.24117097307     IErMin= 7 ErrMin= 6.40D-05
 ErrMax= 6.40D-05  0.00D+00 EMaxC= 1.00D-01 BMatC= 6.14D-07 BMatP= 1.57D-05
 IDIUse=1 WtCom= 1.00D+00 WtEn= 0.00D+00
 Coeff-Com:  0.369D+00-0.945D-01-0.342D+00-0.792D-02-0.510D-01 0.393D+00
 Coeff-Com:  0.734D+00
 Coeff:      0.369D+00-0.945D-01-0.342D+00-0.792D-02-0.510D-01 0.393D+00
 Coeff:      0.734D+00
 Gap=     0.070 Goal=   None    Shift=    0.000
 Gap=     0.105 Goal=   None    Shift=    0.000
 RMSDP=2.56D-05 MaxDP=2.94D-04 DE=-3.82D-05 OVMax= 5.40D-04

 Cycle  32  Pass 1  IDiag  1:
 E= -1082.24117136528     Delta-E=       -0.000000392215 Rises=F Damp=F
 DIIS: error= 9.56D-06 at cycle  32 NSaved=   8.
 NSaved= 8 IEnMin= 8 EnMin= -1082.24117136528     IErMin= 8 ErrMin= 9.56D-06
 ErrMax= 9.56D-06  0.00D+00 EMaxC= 1.00D-01 BMatC= 2.00D-08 BMatP= 6.14D-07
 IDIUse=1 WtCom= 1.00D+00 WtEn= 0.00D+00
 Coeff-Com: -0.122D+00-0.564D-01 0.217D+00 0.284D-02-0.808D-01-0.940D-02
 Coeff-Com: -0.209D-01 0.107D+01
 Coeff:     -0.122D+00-0.564D-01 0.217D+00 0.284D-02-0.808D-01-0.940D-02
 Coeff:     -0.209D-01 0.107D+01
 Gap=     0.070 Goal=   None    Shift=    0.000
 Gap=     0.105 Goal=   None    Shift=    0.000
 RMSDP=8.24D-06 MaxDP=8.52D-05 DE=-3.92D-07 OVMax= 1.77D-04

 Cycle  33  Pass 1  IDiag  1:
 E= -1082.24117139236     Delta-E=       -0.000000027076 Rises=F Damp=F
 DIIS: error= 6.09D-06 at cycle  33 NSaved=   9.
 NSaved= 9 IEnMin= 9 EnMin= -1082.24117139236     IErMin= 9 ErrMin= 6.09D-06
 ErrMax= 6.09D-06  0.00D+00 EMaxC= 1.00D-01 BMatC= 3.53D-09 BMatP= 2.00D-08
 IDIUse=1 WtCom= 1.00D+00 WtEn= 0.00D+00
 Coeff-Com: -0.225D-01 0.658D-02 0.213D-01-0.117D-02-0.342D-02-0.746D-02
 Coeff-Com: -0.426D-01 0.140D-01 0.104D+01
 Coeff:     -0.225D-01 0.658D-02 0.213D-01-0.117D-02-0.342D-02-0.746D-02
 Coeff:     -0.426D-01 0.140D-01 0.104D+01
 Gap=     0.070 Goal=   None    Shift=    0.000
 Gap=     0.105 Goal=   None    Shift=    0.000
 RMSDP=1.10D-05 MaxDP=1.55D-04 DE=-2.71D-08 OVMax= 4.42D-04

 Cycle  34  Pass 1  IDiag  1:
 E= -1082.24117139800     Delta-E=       -0.000000005642 Rises=F Damp=F
 DIIS: error= 1.64D-06 at cycle  34 NSaved=  10.
 NSaved=10 IEnMin=10 EnMin= -1082.24117139800     IErMin=10 ErrMin= 1.64D-06
 ErrMax= 1.64D-06  0.00D+00 EMaxC= 1.00D-01 BMatC= 3.75D-10 BMatP= 3.53D-09
 IDIUse=1 WtCom= 1.00D+00 WtEn= 0.00D+00
 Coeff-Com:  0.523D-02-0.323D-02-0.307D-02 0.394D-03 0.204D-02-0.176D-02
 Coeff-Com:  0.901D-02-0.909D-02-0.744D-01 0.107D+01
 Coeff:      0.523D-02-0.323D-02-0.307D-02 0.394D-03 0.204D-02-0.176D-02
 Coeff:      0.901D-02-0.909D-02-0.744D-01 0.107D+01
 Gap=     0.070 Goal=   None    Shift=    0.000
 Gap=     0.105 Goal=   None    Shift=    0.000
 RMSDP=2.85D-06 MaxDP=4.30D-05 DE=-5.64D-09 OVMax= 1.10D-04

 Cycle  35  Pass 1  IDiag  1:
 E= -1082.24117139833     Delta-E=       -0.000000000329 Rises=F Damp=F
 DIIS: error= 3.46D-07 at cycle  35 NSaved=  11.
 NSaved=11 IEnMin=11 EnMin= -1082.24117139833     IErMin=11 ErrMin= 3.46D-07
 ErrMax= 3.46D-07  0.00D+00 EMaxC= 1.00D-01 BMatC= 1.72D-11 BMatP= 3.75D-10
 IDIUse=1 WtCom= 1.00D+00 WtEn= 0.00D+00
 Coeff-Com:  0.572D-03-0.162D-03-0.557D-03-0.761D-04-0.117D-05 0.149D-02
 Coeff-Com: -0.306D-02-0.469D-02-0.202D-01-0.541D-01 0.108D+01
 Coeff:      0.572D-03-0.162D-03-0.557D-03-0.761D-04-0.117D-05 0.149D-02
 Coeff:     -0.306D-02-0.469D-02-0.202D-01-0.541D-01 0.108D+01
 Gap=     0.070 Goal=   None    Shift=    0.000
 Gap=     0.105 Goal=   None    Shift=    0.000
 RMSDP=6.61D-07 MaxDP=9.39D-06 DE=-3.29D-10 OVMax= 2.61D-05

 Cycle  36  Pass 1  IDiag  1:
 E= -1082.24117139836     Delta-E=       -0.000000000032 Rises=F Damp=F
 DIIS: error= 7.19D-08 at cycle  36 NSaved=  12.
 NSaved=12 IEnMin=12 EnMin= -1082.24117139836     IErMin=12 ErrMin= 7.19D-08
 ErrMax= 7.19D-08  0.00D+00 EMaxC= 1.00D-01 BMatC= 5.27D-13 BMatP= 1.72D-11
 IDIUse=1 WtCom= 1.00D+00 WtEn= 0.00D+00
 Coeff-Com:  0.336D-04 0.194D-04-0.666D-04 0.367D-05-0.617D-04 0.823D-04
 Coeff-Com:  0.154D-03 0.779D-03-0.323D-02 0.398D-03-0.809D-01 0.108D+01
 Coeff:      0.336D-04 0.194D-04-0.666D-04 0.367D-05-0.617D-04 0.823D-04
 Coeff:      0.154D-03 0.779D-03-0.323D-02 0.398D-03-0.809D-01 0.108D+01
 Gap=     0.070 Goal=   None    Shift=    0.000
 Gap=     0.105 Goal=   None    Shift=    0.000
 RMSDP=1.78D-08 MaxDP=1.38D-07 DE=-3.18D-11 OVMax= 2.31D-07

 Cycle  37  Pass 1  IDiag  1:
 E= -1082.24117139836     Delta-E=        0.000000000000 Rises=F Damp=F
 DIIS: error= 1.30D-08 at cycle  37 NSaved=  13.
 NSaved=13 IEnMin=12 EnMin= -1082.24117139836     IErMin=13 ErrMin= 1.30D-08
 ErrMax= 1.30D-08  0.00D+00 EMaxC= 1.00D-01 BMatC= 1.24D-14 BMatP= 5.27D-13
 IDIUse=1 WtCom= 1.00D+00 WtEn= 0.00D+00
 Coeff-Com: -0.158D-04-0.342D-04 0.532D-04 0.484D-06 0.159D-04-0.293D-04
 Coeff-Com:  0.238D-04-0.928D-04 0.155D-02-0.214D-03-0.202D-01-0.167D+00
 Coeff-Com:  0.119D+01
 Coeff:     -0.158D-04-0.342D-04 0.532D-04 0.484D-06 0.159D-04-0.293D-04
 Coeff:      0.238D-04-0.928D-04 0.155D-02-0.214D-03-0.202D-01-0.167D+00
 Coeff:      0.119D+01
 Gap=     0.070 Goal=   None    Shift=    0.000
 Gap=     0.105 Goal=   None    Shift=    0.000
 RMSDP=1.16D-08 MaxDP=1.77D-07 DE= 2.27D-13 OVMax= 4.53D-07

 Cycle  38  Pass 1  IDiag  1:
 E= -1082.24117139836     Delta-E=       -0.000000000002 Rises=F Damp=F
 DIIS: error= 4.68D-09 at cycle  38 NSaved=  14.
 NSaved=14 IEnMin=14 EnMin= -1082.24117139836     IErMin=14 ErrMin= 4.68D-09
 ErrMax= 4.68D-09  0.00D+00 EMaxC= 1.00D-01 BMatC= 3.22D-15 BMatP= 1.24D-14
 IDIUse=1 WtCom= 1.00D+00 WtEn= 0.00D+00
 Coeff-Com:  0.151D-05 0.658D-05-0.857D-05 0.805D-06-0.607D-05 0.644D-05
 Coeff-Com:  0.675D-05 0.538D-04-0.341D-03 0.204D-02-0.633D-02 0.347D-01
 Coeff-Com: -0.169D+00 0.114D+01
 Coeff:      0.151D-05 0.658D-05-0.857D-05 0.805D-06-0.607D-05 0.644D-05
 Coeff:      0.675D-05 0.538D-04-0.341D-03 0.204D-02-0.633D-02 0.347D-01
 Coeff:     -0.169D+00 0.114D+01
 Gap=     0.070 Goal=   None    Shift=    0.000
 Gap=     0.105 Goal=   None    Shift=    0.000
 RMSDP=8.76D-09 MaxDP=1.29D-07 DE=-1.82D-12 OVMax= 3.44D-07

 SCF Done:  E(UB3LYP) =  -1082.24117140     A.U. after   38 cycles
            NFock= 38  Conv=0.88D-08     -V/T= 2.0013
 <Sx>= 0.0000 <Sy>= 0.0000 <Sz>= 1.0000 <S**2>= 4.6040 S= 1.7032
 <L.S>= 0.000000000000E+00
 KE= 1.080867527560D+03 PE=-2.645546599729D+03 EE= 4.443371417527D+02
 Annihilation of the first spin contaminant:
 S**2 before annihilation     4.6040,   after     7.3101
 Leave Link  502 at Thu Jun 18 14:05:54 2015, MaxMem=  2147483648 cpu:       134.7
 (Enter /usr/local/bin/g09/l601.exe)
 Copying SCF densities to generalized density rwf, IOpCl= 1 IROHF=0.

 **********************************************************************

            Population analysis using the SCF density.

 **********************************************************************

 Alpha  occ. eigenvalues -- -215.64799 -24.65768 -20.94831 -20.94429 -20.94429
 Alpha  occ. eigenvalues --  -10.15289  -2.89264  -1.85083  -1.84481  -1.84481
 Alpha  occ. eigenvalues --   -0.41042  -0.22215  -0.22215  -0.20545  -0.20544
 Alpha  occ. eigenvalues --   -0.18661
 Alpha virt. eigenvalues --   -0.11671  -0.05025  -0.05025  -0.00806   0.05209
 Alpha virt. eigenvalues --    0.05209   0.06787   0.09426   0.15683   0.15683
 Alpha virt. eigenvalues --    0.33426   0.68445   0.68445   0.68898   0.77034
 Alpha virt. eigenvalues --    0.97668   1.17175   1.17180   1.21690   1.21690
 Alpha virt. eigenvalues --    1.46505  11.25641
  Beta  occ. eigenvalues -- -215.64723 -24.60049 -20.90794 -20.89308 -20.89308
  Beta  occ. eigenvalues --  -10.18605  -2.72268  -1.68971  -1.65498  -1.65498
  Beta  occ. eigenvalues --   -0.53295  -0.22300  -0.19472  -0.19472
  Beta virt. eigenvalues --   -0.09021  -0.00270  -0.00270  -0.00112   0.06639
  Beta virt. eigenvalues --    0.06640   0.06777   0.06777   0.08243   0.10667
  Beta virt. eigenvalues --    0.18824   0.18824   0.34576   0.61182   0.61182
  Beta virt. eigenvalues --    0.63109   0.79073   0.92569   1.29053   1.29056
  Beta virt. eigenvalues --    1.31656   1.31656   1.51678  11.36272
          Condensed to atoms (all electrons):
               1          2
     1  Cr  23.306123   0.271041
     2  C    0.271041   6.151795
          Atomic-Atomic Spin Densities.
               1          2
     1  Cr   4.679498  -0.144149
     2  C   -0.144149  -2.391201
 Mulliken charges and spin densities:
               1          2
     1  Cr   0.422836   4.535349
     2  C   -0.422836  -2.535349
 Sum of Mulliken charges =   0.00000   2.00000
 Mulliken charges and spin densities with hydrogens summed into heavy atoms:
               1          2
     1  Cr   0.422836   4.535349
     2  C   -0.422836  -2.535349
 Electronic spatial extent (au):  <R**2>=            138.3113
 Charge=              0.0000 electrons
 Dipole moment (field-independent basis, Debye):
    X=              0.0000    Y=              0.0000    Z=             -4.3284  Tot=              4.3284
 Quadrupole moment (field-independent basis, Debye-Ang):
   XX=            -21.5511   YY=            -21.5511   ZZ=            -27.6542
   XY=              0.0000   XZ=              0.0000   YZ=              0.0000
 Traceless Quadrupole moment (field-independent basis, Debye-Ang):
   XX=              2.0344   YY=              2.0344   ZZ=             -4.0687
   XY=              0.0000   XZ=              0.0000   YZ=              0.0000
 Octapole moment (field-independent basis, Debye-Ang**2):
  XXX=              0.0000  YYY=              0.0000  ZZZ=            -51.3992  XYY=              0.0000
  XXY=              0.0000  XXZ=            -13.9105  XZZ=              0.0000  YZZ=              0.0000
  YYZ=            -13.9105  XYZ=              0.0000
 Hexadecapole moment (field-independent basis, Debye-Ang**3):
 XXXX=            -35.3784 YYYY=            -35.3784 ZZZZ=           -214.6194 XXXY=              0.0000
 XXXZ=              0.0000 YYYX=              0.0000 YYYZ=              0.0000 ZZZX=              0.0000
 ZZZY=              0.0000 XXYY=            -11.7928 XXZZ=            -40.2725 YYZZ=            -40.2725
 XXYZ=              0.0000 YYXZ=              0.0000 ZZXY=              0.0000
 N-N= 3.810075901848D+01 E-N=-2.645546601091D+03  KE= 1.080867527560D+03
                          Isotropic Fermi Contact Couplings
        Atom                 a.u.       MegaHertz       Gauss      10(-4) cm-1
     1  Cr(53)             0.92908    -117.60384     -41.96397     -39.22842
     2  C(13)             -0.41184    -231.49321     -82.60253     -77.21782
 --------------------------------------------------------
       Center         ----  Spin Dipole Couplings  ----
                      3XX-RR        3YY-RR        3ZZ-RR
 --------------------------------------------------------
     1   Atom        0.641254      0.641254     -1.282509
     2   Atom       -0.092065     -0.092065      0.184130
 --------------------------------------------------------
                        XY            XZ            YZ
 --------------------------------------------------------
     1   Atom        0.000000      0.000000      0.000000
     2   Atom        0.000000      0.000000      0.000000
 --------------------------------------------------------


 ---------------------------------------------------------------------------------
              Anisotropic Spin Dipole Couplings in Principal Axis System
 ---------------------------------------------------------------------------------

       Atom             a.u.   MegaHertz   Gauss  10(-4) cm-1        Axes

              Baa    -1.2825    38.756    13.829    12.928  0.0000  0.0000  1.0000
     1 Cr(53) Bbb     0.6413   -19.378    -6.915    -6.464  0.7084 -0.7058  0.0000
              Bcc     0.6413   -19.378    -6.915    -6.464  0.7058  0.7084  0.0000
 
              Baa    -0.0921   -12.354    -4.408    -4.121  0.7084 -0.7058  0.0000
     2 C(13)  Bbb    -0.0921   -12.354    -4.408    -4.121  0.7058  0.7084  0.0000
              Bcc     0.1841    24.709     8.817     8.242  0.0000  0.0000  1.0000
 

 ---------------------------------------------------------------------------------

 No NMR shielding tensors so no spin-rotation constants.
 Leave Link  601 at Thu Jun 18 14:05:54 2015, MaxMem=  2147483648 cpu:         4.0
 (Enter /usr/local/bin/g09/l9999.exe)
 1\1\GINC-CAT\SP\UB3LYP\6-31G\C1Cr1\HAICHEN\18-Jun-2015\0\\#p ub3lyp/6-
 31g guess=core symmetry=none\\Title Card Required\\0,3\Cr,0,0.,0.,0.\C
 ,0,0.,0.,2.\\Version=ES64L-G09RevD.01\HF=-1082.2411714\S2=4.604019\S2-
 1=0.\S2A=7.310099\RMSD=8.758e-09\Dipole=0.,0.,-1.7029399\Quadrupole=1.
 5125051,1.5125051,-3.0250103,0.,0.,0.\PG=Unknown\\@


            ARSENIC

 FOR SMELTER FUMES HAVE I BEEN NAMED,
    I AM AN EVIL POISONOUS SMOKE...
 BUT WHEN FROM POISON I AM FREED,
    THROUGH ART AND SLEIGHT OF HAND,
 THEN CAN I CURE BOTH MAN AND BEAST,
    FROM DIRE DISEASE OFTTIMES DIRECT THEM;
 BUT PREPARE ME CORRECTLY, AND TAKE GREAT CARE
    THAT YOU FAITHFULLY KEEP WATCHFUL GUARD OVER ME;
 FOR ELSE I AM POISON, AND POISON REMAIN,
    THAT PIERCES THE HEART OF MANY A ONE.

 ATTRIBUTED TO THE PROBABLY MYTHICAL 15TH
 CENTURY MONK, BASILIUS VALENTINUS
 Job cpu time:       0 days  0 hours  2 minutes 28.5 seconds.
 File lengths (MBytes):  RWF=      5 Int=      0 D2E=      0 Chk=      1 Scr=      1
 Normal termination of Gaussian 09 at Thu Jun 18 14:05:55 2015.
