 Entering Gaussian System, Link 0=g09
 Input=sih3h.gjf
 Output=sih3h.log
 Initial command:
 /usr/local/bin/g09/l1.exe "/tmp/Gau-26343.inp" -scrdir="/tmp/"
 Default is to use a total of  12 processors:
                               12 via shared-memory
                                1 via Linda
 Entering Link 1 = /usr/local/bin/g09/l1.exe PID=     26344.
  
 Copyright (c) 1988,1990,1992,1993,1995,1998,2003,2009,2013,
            Gaussian, Inc.  All Rights Reserved.
  
 This is part of the Gaussian(R) 09 program.  It is based on
 the Gaussian(R) 03 system (copyright 2003, Gaussian, Inc.),
 the Gaussian(R) 98 system (copyright 1998, Gaussian, Inc.),
 the Gaussian(R) 94 system (copyright 1995, Gaussian, Inc.),
 the Gaussian 92(TM) system (copyright 1992, Gaussian, Inc.),
 the Gaussian 90(TM) system (copyright 1990, Gaussian, Inc.),
 the Gaussian 88(TM) system (copyright 1988, Gaussian, Inc.),
 the Gaussian 86(TM) system (copyright 1986, Carnegie Mellon
 University), and the Gaussian 82(TM) system (copyright 1983,
 Carnegie Mellon University). Gaussian is a federally registered
 trademark of Gaussian, Inc.
  
 This software contains proprietary and confidential information,
 including trade secrets, belonging to Gaussian, Inc.
  
 This software is provided under written license and may be
 used, copied, transmitted, or stored only in accord with that
 written license.
  
 The following legend is applicable only to US Government
 contracts under FAR:
  
                    RESTRICTED RIGHTS LEGEND
  
 Use, reproduction and disclosure by the US Government is
 subject to restrictions as set forth in subparagraphs (a)
 and (c) of the Commercial Computer Software - Restricted
 Rights clause in FAR 52.227-19.
  
 Gaussian, Inc.
 340 Quinnipiac St., Bldg. 40, Wallingford CT 06492
  
  
 ---------------------------------------------------------------
 Warning -- This program may not be used in any manner that
 competes with the business of Gaussian, Inc. or will provide
 assistance to any competitor of Gaussian, Inc.  The licensee
 of this program is prohibited from giving any competitor of
 Gaussian, Inc. access to this program.  By using this program,
 the user acknowledges that Gaussian, Inc. is engaged in the
 business of creating and licensing software in the field of
 computational chemistry and represents and warrants to the
 licensee that it is not a competitor of Gaussian, Inc. and that
 it will not use this program in any manner prohibited above.
 ---------------------------------------------------------------
  

 Cite this work as:
 Gaussian 09, Revision D.01,
 M. J. Frisch, G. W. Trucks, H. B. Schlegel, G. E. Scuseria, 
 M. A. Robb, J. R. Cheeseman, G. Scalmani, V. Barone, B. Mennucci, 
 G. A. Petersson, H. Nakatsuji, M. Caricato, X. Li, H. P. Hratchian, 
 A. F. Izmaylov, J. Bloino, G. Zheng, J. L. Sonnenberg, M. Hada, 
 M. Ehara, K. Toyota, R. Fukuda, J. Hasegawa, M. Ishida, T. Nakajima, 
 Y. Honda, O. Kitao, H. Nakai, T. Vreven, J. A. Montgomery, Jr., 
 J. E. Peralta, F. Ogliaro, M. Bearpark, J. J. Heyd, E. Brothers, 
 K. N. Kudin, V. N. Staroverov, T. Keith, R. Kobayashi, J. Normand, 
 K. Raghavachari, A. Rendell, J. C. Burant, S. S. Iyengar, J. Tomasi, 
 M. Cossi, N. Rega, J. M. Millam, M. Klene, J. E. Knox, J. B. Cross, 
 V. Bakken, C. Adamo, J. Jaramillo, R. Gomperts, R. E. Stratmann, 
 O. Yazyev, A. J. Austin, R. Cammi, C. Pomelli, J. W. Ochterski, 
 R. L. Martin, K. Morokuma, V. G. Zakrzewski, G. A. Voth, 
 P. Salvador, J. J. Dannenberg, S. Dapprich, A. D. Daniels, 
 O. Farkas, J. B. Foresman, J. V. Ortiz, J. Cioslowski, 
 and D. J. Fox, Gaussian, Inc., Wallingford CT, 2013.
 
 ******************************************
 Gaussian 09:  ES64L-G09RevD.01 24-Apr-2013
                23-Jun-2015 
 ******************************************
 %chk=sih3h.chk
 --------------------------
 #p svwn5/6-31g* guess=core
 --------------------------
 1/38=1/1;
 2/12=2,17=6,18=5,40=1/2;
 3/5=1,6=6,7=1,11=2,16=1,25=1,30=1,74=201/1,2,3;
 4/5=2/1;
 5/5=2,38=5/2;
 6/7=2,8=2,9=2,10=2,28=1/1;
 99/5=1,9=1/99;
 Leave Link    1 at Tue Jun 23 13:22:53 2015, MaxMem=           0 cpu:        13.4
 (Enter /usr/local/bin/g09/l101.exe)
 -------------------
 Title Card Required
 -------------------
 Symbolic Z-matrix:
 Charge =  0 Multiplicity = 1
 Si                    0.        0.        0. 
 H                     0.        0.        1.47 
 H                     1.38593   0.       -0.49 
 H                    -0.69296  -1.20025  -0.49 
 H                    -1.88562   3.26599  -1.33333 
 
 NAtoms=      5 NQM=        5 NQMF=       0 NMMI=      0 NMMIF=      0
                NMic=       0 NMicF=      0.
                    Isotopes and Nuclear Properties:
 (Nuclear quadrupole moments (NQMom) in fm**2, nuclear magnetic moments (NMagM)
  in nuclear magnetons)

  Atom         1           2           3           4           5
 IAtWgt=          28           1           1           1           1
 AtmWgt=  27.9769284   1.0078250   1.0078250   1.0078250   1.0078250
 NucSpn=           0           1           1           1           1
 AtZEff=   0.0000000   0.0000000   0.0000000   0.0000000   0.0000000
 NQMom=    0.0000000   0.0000000   0.0000000   0.0000000   0.0000000
 NMagM=    0.0000000   2.7928460   2.7928460   2.7928460   2.7928460
 AtZNuc=  14.0000000   1.0000000   1.0000000   1.0000000   1.0000000
 Leave Link  101 at Tue Jun 23 13:23:00 2015, MaxMem=  2147483648 cpu:        37.6
 (Enter /usr/local/bin/g09/l202.exe)
                          Input orientation:                          
 ---------------------------------------------------------------------
 Center     Atomic      Atomic             Coordinates (Angstroms)
 Number     Number       Type             X           Y           Z
 ---------------------------------------------------------------------
      1         14           0        0.000000    0.000000    0.000000
      2          1           0        0.000000    0.000000    1.470000
      3          1           0        1.385929    0.000000   -0.490000
      4          1           0       -0.692965   -1.200250   -0.490000
      5          1           0       -1.885618    3.265986   -1.333333
 ---------------------------------------------------------------------
                    Distance matrix (angstroms):
                    1          2          3          4          5
     1  Si   0.000000
     2  H    1.470000   0.000000
     3  H    1.470000   2.400500   0.000000
     4  H    1.470000   2.400500   2.400500   0.000000
     5  H    4.000000   4.699032   4.699032   4.699032   0.000000
 Stoichiometry    H4Si
 Framework group  C3V[C3(HSi),3SGV(H)]
 Deg. of freedom     3
 Full point group                 C3V     NOp   6
 Largest Abelian subgroup         CS      NOp   2
 Largest concise Abelian subgroup CS      NOp   2
                         Standard orientation:                         
 ---------------------------------------------------------------------
 Center     Atomic      Atomic             Coordinates (Angstroms)
 Number     Number       Type             X           Y           Z
 ---------------------------------------------------------------------
      1         14           0        0.000000    0.000000    0.140556
      2          1           0        0.000000    1.385929    0.630556
      3          1           0        1.200250   -0.692965    0.630556
      4          1           0       -1.200250   -0.692965    0.630556
      5          1           0        0.000000    0.000000   -3.859444
 ---------------------------------------------------------------------
 Rotational constants (GHZ):     87.0219178     25.8482564     25.8482564
 Leave Link  202 at Tue Jun 23 13:23:14 2015, MaxMem=  2147483648 cpu:         4.4
 (Enter /usr/local/bin/g09/l301.exe)
 Standard basis: 6-31G(d) (6D, 7F)
 Ernie: Thresh=  0.10000D-02 Tol=  0.10000D-05 Strict=F.
 There are    20 symmetry adapted cartesian basis functions of A'  symmetry.
 There are     7 symmetry adapted cartesian basis functions of A"  symmetry.
 There are    20 symmetry adapted basis functions of A'  symmetry.
 There are     7 symmetry adapted basis functions of A"  symmetry.
    27 basis functions,    68 primitive gaussians,    27 cartesian basis functions
     9 alpha electrons        9 beta electrons
       nuclear repulsion energy        17.9706450688 Hartrees.
 IExCor=  201 DFT=T Ex=S Corr=VWN5 ExCW=0 ScaHFX=  0.000000
 ScaDFX=  1.000000  1.000000  1.000000  1.000000 ScalE2=  1.000000  1.000000
 IRadAn=      0 IRanWt=     -1 IRanGd=            0 ICorTp=0 IEmpDi=  4
 NAtoms=    5 NActive=    5 NUniq=    3 SFac= 2.78D+00 NAtFMM=   60 NAOKFM=F Big=F
 Integral buffers will be    131072 words long.
 Raffenetti 2 integral format.
 Two-electron integral symmetry is turned on.
 Leave Link  301 at Tue Jun 23 13:23:20 2015, MaxMem=  2147483648 cpu:         3.1
 (Enter /usr/local/bin/g09/l302.exe)
 NPDir=0 NMtPBC=     1 NCelOv=     1 NCel=       1 NClECP=     1 NCelD=      1
         NCelK=      1 NCelE2=     1 NClLst=     1 CellRange=     0.0.
 One-electron integrals computed using PRISM.
 One-electron integral symmetry used in STVInt
 NBasis=    27 RedAO= T EigKep=  1.38D-02  NBF=    20     7
 NBsUse=    27 1.00D-06 EigRej= -1.00D+00 NBFU=    20     7
 Precomputing XC quadrature grid using
 IXCGrd= 4 IRadAn=           0 IRanWt=          -1 IRanGd=           0 AccXCQ= 0.00D+00.
 Generated NRdTot=       0 NPtTot=           0 NUsed=           0 NTot=          32
 NSgBfM=    27    27    27    27    27 MxSgAt=     5 MxSgA2=     5.
 Leave Link  302 at Tue Jun 23 13:23:24 2015, MaxMem=  2147483648 cpu:        18.4
 (Enter /usr/local/bin/g09/l303.exe)
 DipDrv:  MaxL=1.
 Leave Link  303 at Tue Jun 23 13:23:25 2015, MaxMem=  2147483648 cpu:         2.6
 (Enter /usr/local/bin/g09/l401.exe)
 Core hamiltonian diagonalized for initial guess.
 JPrj=0 DoOrth=F DoCkMO=F.
 Initial guess orbital symmetries:
       Occupied  (A1) (A1) (E) (E) (A1) (A1) (E) (E) (A1)
       Virtual   (E) (E) (A1) (E) (E) (A1) (E) (E) (A1) (A1) (A1)
                 (E) (E) (E) (E) (A1) (A1) (A1)
 The electronic state of the initial guess is 1-A1.
 Leave Link  401 at Tue Jun 23 13:23:29 2015, MaxMem=  2147483648 cpu:        23.6
 (Enter /usr/local/bin/g09/l502.exe)
 Closed shell SCF:
 Using DIIS extrapolation, IDIIS=  1040.
 Integral symmetry usage will be decided dynamically.
 Keep J ints in memory in symmetry-blocked form, NReq=953181.
 IVT=       21369 IEndB=       21369 NGot=  2147483648 MDV=  2147422886
 LenX=  2147422886 LenY=  2147421716
 Requested convergence on RMS density matrix=1.00D-08 within 128 cycles.
 Requested convergence on MAX density matrix=1.00D-06.
 Requested convergence on             energy=1.00D-06.
 No special actions if energy rises.
 FoFCou: FMM=F IPFlag=           0 FMFlag=           0 FMFlg1=           0
         NFxFlg=           0 DoJE=F BraDBF=F KetDBF=F FulRan=T
         wScrn=  0.000000 ICntrl=     600 IOpCl=  0 I1Cent=           0 NGrid=           0
         NMat0=    1 NMatS0=    378 NMatT0=    0 NMatD0=    1 NMtDS0=    0 NMtDT0=    0
 Petite list used in FoFCou.
 Integral accuracy reduced to 1.0D-05 until final iterations.

 Cycle   1  Pass 0  IDiag  1:
 E= -283.778357921302    
 DIIS: error= 5.77D-01 at cycle   1 NSaved=   1.
 NSaved= 1 IEnMin= 1 EnMin= -283.778357921302     IErMin= 1 ErrMin= 5.77D-01
 ErrMax= 5.77D-01  0.00D+00 EMaxC= 1.00D-01 BMatC= 3.39D+00 BMatP= 3.39D+00
 IDIUse=3 WtCom= 0.00D+00 WtEn= 1.00D+00
 Coeff-Com:  0.100D+01
 Coeff-En:   0.100D+01
 Coeff:      0.100D+01
 Gap=    -0.297 Goal=   None    Shift=    0.000
 GapD=   -0.297 DampG=0.250 DampE=0.250 DampFc=0.2500 IDamp=-1.
 Damping current iteration by 2.50D-01
 RMSDP=1.64D+00 MaxDP=3.28D+01              OVMax= 2.84D-01

 Cycle   2  Pass 0  IDiag  1:
 E= -286.190860568366     Delta-E=       -2.412502647064 Rises=F Damp=T
 DIIS: error= 4.13D-01 at cycle   2 NSaved=   2.
 NSaved= 2 IEnMin= 2 EnMin= -286.190860568366     IErMin= 2 ErrMin= 4.13D-01
 ErrMax= 4.13D-01  0.00D+00 EMaxC= 1.00D-01 BMatC= 1.70D+00 BMatP= 3.39D+00
 IDIUse=3 WtCom= 0.00D+00 WtEn= 1.00D+00
 Coeff-Com: -0.235D+01 0.335D+01
 Coeff-En:   0.000D+00 0.100D+01
 Coeff:      0.000D+00 0.100D+01
 Gap=     0.210 Goal=   None    Shift=    0.000
 RMSDP=1.23D+00 MaxDP=2.48D+01 DE=-2.41D+00 OVMax= 1.56D-01

 Cycle   3  Pass 0  IDiag  1:
 E= -289.263095028744     Delta-E=       -3.072234460378 Rises=F Damp=F
 DIIS: error= 1.16D-01 at cycle   3 NSaved=   3.
 NSaved= 3 IEnMin= 3 EnMin= -289.263095028744     IErMin= 3 ErrMin= 1.16D-01
 ErrMax= 1.16D-01  0.00D+00 EMaxC= 1.00D-01 BMatC= 6.91D-01 BMatP= 1.70D+00
 IDIUse=3 WtCom= 0.00D+00 WtEn= 1.00D+00
 Coeff-Com: -0.324D+01 0.454D+01-0.299D+00
 Coeff-En:   0.000D+00 0.671D-02 0.993D+00
 Coeff:      0.000D+00 0.671D-02 0.993D+00
 Gap=    -0.837 Goal=   None    Shift=    0.000
 RMSDP=1.04D-01 MaxDP=1.55D+00 DE=-3.07D+00 OVMax= 9.82D-01

 Cycle   4  Pass 0  IDiag  1:
 E= -289.148913965271     Delta-E=        0.114181063474 Rises=F Damp=F
 DIIS: error= 1.41D-01 at cycle   4 NSaved=   4.
 NSaved= 4 IEnMin= 3 EnMin= -289.263095028744     IErMin= 3 ErrMin= 1.16D-01
 ErrMax= 1.41D-01  0.00D+00 EMaxC= 1.00D-01 BMatC= 5.17D-01 BMatP= 6.91D-01
 IDIUse=3 WtCom= 0.00D+00 WtEn= 1.00D+00
 Coeff-Com: -0.238D+01 0.329D+01-0.115D+00 0.207D+00
 Coeff-En:   0.000D+00 0.000D+00 0.519D+00 0.481D+00
 Coeff:      0.000D+00 0.000D+00 0.519D+00 0.481D+00
 Gap=     0.189 Goal=   None    Shift=    0.000
 RMSDP=7.15D-02 MaxDP=1.24D+00 DE= 1.14D-01 OVMax= 3.91D-01

 Cycle   5  Pass 0  IDiag  1:
 E= -290.203343883574     Delta-E=       -1.054429918304 Rises=F Damp=F
 DIIS: error= 4.34D-02 at cycle   5 NSaved=   5.
 NSaved= 5 IEnMin= 5 EnMin= -290.203343883574     IErMin= 5 ErrMin= 4.34D-02
 ErrMax= 4.34D-02  0.00D+00 EMaxC= 1.00D-01 BMatC= 1.83D-02 BMatP= 5.17D-01
 IDIUse=3 WtCom= 5.66D-01 WtEn= 4.34D-01
 Coeff-Com: -0.796D+00 0.111D+01-0.353D-01-0.196D-01 0.742D+00
 Coeff-En:   0.000D+00 0.000D+00 0.199D+00 0.000D+00 0.801D+00
 Coeff:     -0.450D+00 0.628D+00 0.663D-01-0.111D-01 0.768D+00
 Gap=    -0.204 Goal=   None    Shift=    0.000
 RMSDP=3.35D-02 MaxDP=3.87D-01 DE=-1.05D+00 OVMax= 9.61D-01

 Cycle   6  Pass 0  IDiag  1:
 E= -290.157653029101     Delta-E=        0.045690854473 Rises=F Damp=F
 DIIS: error= 9.00D-02 at cycle   6 NSaved=   6.
 NSaved= 6 IEnMin= 5 EnMin= -290.203343883574     IErMin= 5 ErrMin= 4.34D-02
 ErrMax= 9.00D-02  0.00D+00 EMaxC= 1.00D-01 BMatC= 5.93D-02 BMatP= 1.83D-02
 IDIUse=2 WtCom= 0.00D+00 WtEn= 1.00D+00
 Coeff-En:   0.000D+00 0.000D+00 0.000D+00 0.000D+00 0.524D+00 0.476D+00
 Coeff:      0.000D+00 0.000D+00 0.000D+00 0.000D+00 0.524D+00 0.476D+00
 Gap=     0.147 Goal=   None    Shift=    0.000
 RMSDP=3.18D-02 MaxDP=3.34D-01 DE= 4.57D-02 OVMax= 9.09D-01

 Cycle   7  Pass 0  IDiag  1:
 E= -290.291298751819     Delta-E=       -0.133645722718 Rises=F Damp=F
 DIIS: error= 6.49D-02 at cycle   7 NSaved=   7.
 NSaved= 7 IEnMin= 7 EnMin= -290.291298751819     IErMin= 5 ErrMin= 4.34D-02
 ErrMax= 6.49D-02  0.00D+00 EMaxC= 1.00D-01 BMatC= 2.78D-02 BMatP= 1.83D-02
 IDIUse=2 WtCom= 0.00D+00 WtEn= 1.00D+00
 Coeff-En:   0.000D+00 0.000D+00 0.000D+00 0.000D+00 0.000D+00 0.419D+00
 Coeff-En:   0.581D+00
 Coeff:      0.000D+00 0.000D+00 0.000D+00 0.000D+00 0.000D+00 0.419D+00
 Coeff:      0.581D+00
 Gap=     0.015 Goal=   None    Shift=    0.000
 RMSDP=1.55D-02 MaxDP=2.09D-01 DE=-1.34D-01 OVMax= 4.22D-01

 Cycle   8  Pass 0  IDiag  1:
 E= -290.456499680347     Delta-E=       -0.165200928528 Rises=F Damp=F
 DIIS: error= 6.29D-03 at cycle   8 NSaved=   8.
 NSaved= 8 IEnMin= 8 EnMin= -290.456499680347     IErMin= 8 ErrMin= 6.29D-03
 ErrMax= 6.29D-03  0.00D+00 EMaxC= 1.00D-01 BMatC= 5.76D-04 BMatP= 1.83D-02
 IDIUse=3 WtCom= 9.37D-01 WtEn= 6.29D-02
 Coeff-Com: -0.301D-01 0.386D-01-0.753D-02 0.200D-01 0.271D-01 0.517D-01
 Coeff-Com:  0.880D-02 0.891D+00
 Coeff-En:   0.000D+00 0.000D+00 0.000D+00 0.000D+00 0.000D+00 0.000D+00
 Coeff-En:   0.000D+00 0.100D+01
 Coeff:     -0.282D-01 0.362D-01-0.705D-02 0.188D-01 0.254D-01 0.485D-01
 Coeff:      0.824D-02 0.898D+00
 Gap=     0.021 Goal=   None    Shift=    0.000
 RMSDP=4.10D-03 MaxDP=5.46D-02 DE=-1.65D-01 OVMax= 8.30D-02

 Cycle   9  Pass 0  IDiag  1:
 E= -290.450576560761     Delta-E=        0.005923119586 Rises=F Damp=F
 DIIS: error= 1.95D-02 at cycle   9 NSaved=   9.
 NSaved= 9 IEnMin= 8 EnMin= -290.456499680347     IErMin= 8 ErrMin= 6.29D-03
 ErrMax= 1.95D-02  0.00D+00 EMaxC= 1.00D-01 BMatC= 2.49D-03 BMatP= 5.76D-04
 IDIUse=2 WtCom= 0.00D+00 WtEn= 1.00D+00
 Coeff-En:   0.000D+00 0.000D+00 0.000D+00 0.000D+00 0.000D+00 0.000D+00
 Coeff-En:   0.000D+00 0.868D+00 0.132D+00
 Coeff:      0.000D+00 0.000D+00 0.000D+00 0.000D+00 0.000D+00 0.000D+00
 Coeff:      0.000D+00 0.868D+00 0.132D+00
 Gap=     0.021 Goal=   None    Shift=    0.000
 RMSDP=8.17D-03 MaxDP=1.13D-01 DE= 5.92D-03 OVMax= 2.27D-01

 Cycle  10  Pass 0  IDiag  1:
 E= -290.433832021609     Delta-E=        0.016744539152 Rises=F Damp=F
 DIIS: error= 3.47D-02 at cycle  10 NSaved=  10.
 NSaved=10 IEnMin= 8 EnMin= -290.456499680347     IErMin= 8 ErrMin= 6.29D-03
 ErrMax= 3.47D-02  0.00D+00 EMaxC= 1.00D-01 BMatC= 7.17D-03 BMatP= 5.76D-04
 IDIUse=2 WtCom= 0.00D+00 WtEn= 1.00D+00
 EnCoef did     3 forward-backward iterations
 Coeff-En:   0.000D+00 0.000D+00 0.000D+00 0.000D+00 0.000D+00 0.000D+00
 Coeff-En:   0.000D+00 0.164D+00 0.552D+00 0.284D+00
 Coeff:      0.000D+00 0.000D+00 0.000D+00 0.000D+00 0.000D+00 0.000D+00
 Coeff:      0.000D+00 0.164D+00 0.552D+00 0.284D+00
 Gap=     0.022 Goal=   None    Shift=    0.000
 RMSDP=4.33D-03 MaxDP=5.74D-02 DE= 1.67D-02 OVMax= 1.20D-01

 Problem detected with inexpensive integrals.
 Switching to full accuracy and repeating last cycle.
 Cycle  11  Pass 1  IDiag  1:
 E= -290.433888482915     Delta-E=       -0.000056461306 Rises=F Damp=F
 DIIS: error= 3.47D-02 at cycle   1 NSaved=   1.
 NSaved= 1 IEnMin= 1 EnMin= -290.433888482915     IErMin= 1 ErrMin= 3.47D-02
 ErrMax= 3.47D-02  0.00D+00 EMaxC= 1.00D-01 BMatC= 7.17D-03 BMatP= 7.17D-03
 IDIUse=3 WtCom= 6.53D-01 WtEn= 3.47D-01
 Coeff-Com:  0.100D+01
 Coeff-En:   0.100D+01
 Coeff:      0.100D+01
 Gap=    -0.039 Goal=   None    Shift=    0.000
 GapD=   -0.039 DampG=0.250 DampE=0.500 DampFc=0.2500 IDamp=-1.
 Damping current iteration by 2.50D-01
 RMSDP=2.99D-02 MaxDP=3.37D-01 DE=-5.65D-05 OVMax= 7.94D-01

 Cycle  12  Pass 1  IDiag  1:
 E= -290.449063993745     Delta-E=       -0.015175510831 Rises=F Damp=T
 DIIS: error= 5.46D-03 at cycle   2 NSaved=   2.
 NSaved= 2 IEnMin= 2 EnMin= -290.449063993745     IErMin= 2 ErrMin= 5.46D-03
 ErrMax= 5.46D-03  0.00D+00 EMaxC= 1.00D-01 BMatC= 8.82D-04 BMatP= 7.17D-03
 IDIUse=3 WtCom= 9.45D-01 WtEn= 5.46D-02
 Coeff-Com:  0.210D+00 0.790D+00
 Coeff-En:   0.279D+00 0.721D+00
 Coeff:      0.213D+00 0.787D+00
 Gap=     0.007 Goal=   None    Shift=    0.000
 RMSDP=6.40D-03 MaxDP=5.06D-02 DE=-1.52D-02 OVMax= 6.09D-01

 Cycle  13  Pass 1  IDiag  1:
 E= -290.444122168047     Delta-E=        0.004941825698 Rises=F Damp=F
 DIIS: error= 2.71D-02 at cycle   3 NSaved=   3.
 NSaved= 3 IEnMin= 2 EnMin= -290.449063993745     IErMin= 2 ErrMin= 5.46D-03
 ErrMax= 2.71D-02  0.00D+00 EMaxC= 1.00D-01 BMatC= 3.98D-03 BMatP= 8.82D-04
 IDIUse=2 WtCom= 0.00D+00 WtEn= 1.00D+00
 EnCoef did   100 forward-backward iterations
 Coeff-En:   0.423D+00 0.134D-01 0.563D+00
 Coeff:      0.423D+00 0.134D-01 0.563D+00
 Gap=     0.021 Goal=   None    Shift=    0.000
 RMSDP=3.47D-03 MaxDP=4.59D-02 DE= 4.94D-03 OVMax= 9.22D-02

 Cycle  14  Pass 1  IDiag  1:
 E= -290.457153226110     Delta-E=       -0.013031058062 Rises=F Damp=F
 DIIS: error= 5.37D-03 at cycle   4 NSaved=   4.
 NSaved= 4 IEnMin= 4 EnMin= -290.457153226110     IErMin= 4 ErrMin= 5.37D-03
 ErrMax= 5.37D-03  0.00D+00 EMaxC= 1.00D-01 BMatC= 2.03D-04 BMatP= 8.82D-04
 IDIUse=3 WtCom= 9.46D-01 WtEn= 5.37D-02
 Coeff-Com:  0.146D+00-0.172D+00 0.280D-01 0.998D+00
 Coeff-En:   0.111D+00 0.000D+00 0.000D+00 0.889D+00
 Coeff:      0.144D+00-0.163D+00 0.265D-01 0.993D+00
 Gap=     0.022 Goal=   None    Shift=    0.000
 RMSDP=1.15D-03 MaxDP=1.64D-02 DE=-1.30D-02 OVMax= 3.13D-02

 Cycle  15  Pass 1  IDiag  1:
 E= -290.454620712437     Delta-E=        0.002532513672 Rises=F Damp=F
 DIIS: error= 1.31D-02 at cycle   5 NSaved=   5.
 NSaved= 5 IEnMin= 4 EnMin= -290.457153226110     IErMin= 4 ErrMin= 5.37D-03
 ErrMax= 1.31D-02  0.00D+00 EMaxC= 1.00D-01 BMatC= 1.04D-03 BMatP= 2.03D-04
 IDIUse=2 WtCom= 0.00D+00 WtEn= 1.00D+00
 Rare condition: small coef for last iteration:  0.000D+00
 Coeff-En:   0.253D+00 0.000D+00 0.000D+00 0.000D+00 0.747D+00
 Coeff:      0.253D+00 0.000D+00 0.000D+00 0.000D+00 0.747D+00
 Gap=     0.022 Goal=   None    Shift=    0.000
 RMSDP=3.78D-03 MaxDP=5.30D-02 DE= 2.53D-03 OVMax= 1.03D-01

 Cycle  16  Pass 1  IDiag  1:
 E= -290.454700790152     Delta-E=       -0.000080077715 Rises=F Damp=F
 DIIS: error= 1.26D-02 at cycle   6 NSaved=   6.
 NSaved= 6 IEnMin= 4 EnMin= -290.457153226110     IErMin= 4 ErrMin= 5.37D-03
 ErrMax= 1.26D-02  0.00D+00 EMaxC= 1.00D-01 BMatC= 1.05D-03 BMatP= 2.03D-04
 IDIUse=2 WtCom= 0.00D+00 WtEn= 1.00D+00
 EnCoef did   100 forward-backward iterations
 Coeff-En:   0.000D+00 0.000D+00 0.000D+00 0.708D+00 0.317D-02 0.289D+00
 Coeff:      0.000D+00 0.000D+00 0.000D+00 0.708D+00 0.317D-02 0.289D+00
 Gap=     0.022 Goal=   None    Shift=    0.000
 RMSDP=1.41D-03 MaxDP=1.94D-02 DE=-8.01D-05 OVMax= 3.74D-02

 Cycle  17  Pass 1  IDiag  1:
 E= -290.457478048278     Delta-E=       -0.002777258126 Rises=F Damp=F
 DIIS: error= 3.40D-03 at cycle   7 NSaved=   7.
 NSaved= 7 IEnMin= 7 EnMin= -290.457478048278     IErMin= 7 ErrMin= 3.40D-03
 ErrMax= 3.40D-03  0.00D+00 EMaxC= 1.00D-01 BMatC= 7.39D-05 BMatP= 2.03D-04
 IDIUse=3 WtCom= 9.66D-01 WtEn= 3.40D-02
 EnCoef did   100 forward-backward iterations
 Coeff-Com: -0.775D-02-0.280D-02-0.599D-02 0.227D+00 0.991D-01 0.289D-01
 Coeff-Com:  0.661D+00
 Coeff-En:   0.000D+00 0.000D+00 0.000D+00 0.369D+00 0.615D-02 0.000D+00
 Coeff-En:   0.625D+00
 Coeff:     -0.749D-02-0.270D-02-0.578D-02 0.232D+00 0.960D-01 0.279D-01
 Coeff:      0.660D+00
 Gap=     0.022 Goal=   None    Shift=    0.000
 RMSDP=5.58D-04 MaxDP=7.80D-03 DE=-2.78D-03 OVMax= 1.53D-02

 Cycle  18  Pass 1  IDiag  1:
 E= -290.457685099719     Delta-E=       -0.000207051441 Rises=F Damp=F
 DIIS: error= 4.30D-04 at cycle   8 NSaved=   8.
 NSaved= 8 IEnMin= 8 EnMin= -290.457685099719     IErMin= 8 ErrMin= 4.30D-04
 ErrMax= 4.30D-04  0.00D+00 EMaxC= 1.00D-01 BMatC= 1.13D-06 BMatP= 7.39D-05
 IDIUse=3 WtCom= 9.96D-01 WtEn= 4.30D-03
 Coeff-Com:  0.884D-03 0.494D-04-0.110D-02 0.323D-02-0.101D-01-0.425D-03
 Coeff-Com:  0.690D-01 0.938D+00
 Coeff-En:   0.000D+00 0.000D+00 0.000D+00 0.000D+00 0.000D+00 0.000D+00
 Coeff-En:   0.949D-01 0.905D+00
 Coeff:      0.880D-03 0.491D-04-0.109D-02 0.322D-02-0.100D-01-0.423D-03
 Coeff:      0.691D-01 0.938D+00
 Gap=     0.022 Goal=   None    Shift=    0.000
 RMSDP=5.44D-05 MaxDP=7.67D-04 DE=-2.07D-04 OVMax= 1.50D-03

 Cycle  19  Pass 1  IDiag  1:
 E= -290.457688359209     Delta-E=       -0.000003259490 Rises=F Damp=F
 DIIS: error= 5.37D-05 at cycle   9 NSaved=   9.
 NSaved= 9 IEnMin= 9 EnMin= -290.457688359209     IErMin= 9 ErrMin= 5.37D-05
 ErrMax= 5.37D-05  0.00D+00 EMaxC= 1.00D-01 BMatC= 1.74D-08 BMatP= 1.13D-06
 IDIUse=1 WtCom= 1.00D+00 WtEn= 0.00D+00
 Coeff-Com:  0.137D-03 0.862D-04-0.304D-03-0.459D-03-0.214D-02 0.185D-02
 Coeff-Com:  0.662D-03 0.396D-01 0.961D+00
 Coeff:      0.137D-03 0.862D-04-0.304D-03-0.459D-03-0.214D-02 0.185D-02
 Coeff:      0.662D-03 0.396D-01 0.961D+00
 Gap=     0.022 Goal=   None    Shift=    0.000
 RMSDP=6.24D-06 MaxDP=8.79D-05 DE=-3.26D-06 OVMax= 1.72D-04

 Cycle  20  Pass 1  IDiag  1:
 E= -290.457688408679     Delta-E=       -0.000000049470 Rises=F Damp=F
 DIIS: error= 1.06D-05 at cycle  10 NSaved=  10.
 NSaved=10 IEnMin=10 EnMin= -290.457688408679     IErMin=10 ErrMin= 1.06D-05
 ErrMax= 1.06D-05  0.00D+00 EMaxC= 1.00D-01 BMatC= 6.76D-10 BMatP= 1.74D-08
 IDIUse=1 WtCom= 1.00D+00 WtEn= 0.00D+00
 Coeff-Com:  0.156D-04 0.703D-05-0.548D-04-0.738D-04-0.159D-03 0.211D-03
 Coeff-Com:  0.122D-03-0.728D-04-0.702D-01 0.107D+01
 Coeff:      0.156D-04 0.703D-05-0.548D-04-0.738D-04-0.159D-03 0.211D-03
 Coeff:      0.122D-03-0.728D-04-0.702D-01 0.107D+01
 Gap=     0.022 Goal=   None    Shift=    0.000
 RMSDP=1.30D-06 MaxDP=1.84D-05 DE=-4.95D-08 OVMax= 3.61D-05

 Cycle  21  Pass 1  IDiag  1:
 E= -290.457688410640     Delta-E=       -0.000000001960 Rises=F Damp=F
 DIIS: error= 1.57D-06 at cycle  11 NSaved=  11.
 NSaved=11 IEnMin=11 EnMin= -290.457688410640     IErMin=11 ErrMin= 1.57D-06
 ErrMax= 1.57D-06  0.00D+00 EMaxC= 1.00D-01 BMatC= 1.48D-11 BMatP= 6.76D-10
 IDIUse=1 WtCom= 1.00D+00 WtEn= 0.00D+00
 Coeff-Com:  0.999D-06 0.684D-06-0.229D-05 0.169D-05-0.561D-05-0.225D-05
 Coeff-Com:  0.623D-04-0.154D-03-0.260D-01 0.215D-01 0.100D+01
 Coeff:      0.999D-06 0.684D-06-0.229D-05 0.169D-05-0.561D-05-0.225D-05
 Coeff:      0.623D-04-0.154D-03-0.260D-01 0.215D-01 0.100D+01
 Gap=     0.022 Goal=   None    Shift=    0.000
 RMSDP=2.24D-07 MaxDP=3.16D-06 DE=-1.96D-09 OVMax= 6.19D-06

 Cycle  22  Pass 1  IDiag  1:
 E= -290.457688410683     Delta-E=       -0.000000000043 Rises=F Damp=F
 DIIS: error= 2.15D-08 at cycle  12 NSaved=  12.
 NSaved=12 IEnMin=12 EnMin= -290.457688410683     IErMin=12 ErrMin= 2.15D-08
 ErrMax= 2.15D-08  0.00D+00 EMaxC= 1.00D-01 BMatC= 2.74D-15 BMatP= 1.48D-11
 IDIUse=1 WtCom= 1.00D+00 WtEn= 0.00D+00
 Coeff-Com: -0.101D-06-0.380D-07 0.369D-07 0.636D-06 0.189D-05-0.128D-05
 Coeff-Com:  0.328D-05-0.926D-05-0.125D-02-0.465D-02 0.395D-01 0.966D+00
 Coeff:     -0.101D-06-0.380D-07 0.369D-07 0.636D-06 0.189D-05-0.128D-05
 Coeff:      0.328D-05-0.926D-05-0.125D-02-0.465D-02 0.395D-01 0.966D+00
 Gap=     0.022 Goal=   None    Shift=    0.000
 RMSDP=4.04D-09 MaxDP=5.70D-08 DE=-4.33D-11 OVMax= 1.12D-07

 SCF Done:  E(RS-VWN5) =  -290.457688411     A.U. after   22 cycles
            NFock= 22  Conv=0.40D-08     -V/T= 2.0008
 KE= 2.902174219662D+02 PE=-7.286739391084D+02 EE= 1.300281836627D+02
 Leave Link  502 at Tue Jun 23 13:23:43 2015, MaxMem=  2147483648 cpu:        94.9
 (Enter /usr/local/bin/g09/l601.exe)
 Copying SCF densities to generalized density rwf, IOpCl= 0 IROHF=0.

 **********************************************************************

            Population analysis using the SCF density.

 **********************************************************************

 Orbital symmetries:
       Occupied  (A1) (A1) (A1) (E) (E) (A1) (E) (E) (A1)
       Virtual   (A1) (E) (E) (A1) (A1) (E) (E) (A1) (E) (E) (A1)
                 (E) (E) (A1) (A1) (E) (E) (A1)
 The electronic state is 1-A1.
 Alpha  occ. eigenvalues --  -65.15578  -5.05741  -3.50031  -3.49627  -3.49627
 Alpha  occ. eigenvalues --   -0.50426  -0.33393  -0.33393  -0.20149
 Alpha virt. eigenvalues --   -0.17957   0.01415   0.01415   0.06075   0.12772
 Alpha virt. eigenvalues --    0.18441   0.18441   0.21359   0.50026   0.50026
 Alpha virt. eigenvalues --    0.59243   0.59467   0.59467   0.77556   0.90202
 Alpha virt. eigenvalues --    1.08123   1.08123   2.78910
          Condensed to atoms (all electrons):
               1          2          3          4          5
     1  Si  12.841524   0.365087   0.365087   0.365087   0.056724
     2  H    0.365087   0.646855  -0.015933  -0.015933  -0.000144
     3  H    0.365087  -0.015933   0.646855  -0.015933  -0.000144
     4  H    0.365087  -0.015933  -0.015933   0.646855  -0.000144
     5  H    0.056724  -0.000144  -0.000144  -0.000144   1.010403
 Mulliken charges:
               1
     1  Si   0.006492
     2  H    0.020068
     3  H    0.020068
     4  H    0.020068
     5  H   -0.066697
 Sum of Mulliken charges =   0.00000
 Mulliken charges with hydrogens summed into heavy atoms:
               1
     1  Si   0.000000
 Electronic spatial extent (au):  <R**2>=            120.4921
 Charge=              0.0000 electrons
 Dipole moment (field-independent basis, Debye):
    X=              0.0000    Y=              0.0000    Z=              1.7663  Tot=              1.7663
 Quadrupole moment (field-independent basis, Debye-Ang):
   XX=            -16.8148   YY=            -16.8148   ZZ=            -22.1554
   XY=              0.0000   XZ=              0.0000   YZ=              0.0000
 Traceless Quadrupole moment (field-independent basis, Debye-Ang):
   XX=              1.7802   YY=              1.7802   ZZ=             -3.5604
   XY=              0.0000   XZ=              0.0000   YZ=              0.0000
 Octapole moment (field-independent basis, Debye-Ang**2):
  XXX=              0.0000  YYY=             -0.0571  ZZZ=             23.5289  XYY=              0.0000
  XXY=              0.0571  XXZ=              3.1222  XZZ=              0.0000  YZZ=              0.0000
  YYZ=              3.1222  XYZ=              0.0000
 Hexadecapole moment (field-independent basis, Debye-Ang**3):
 XXXX=            -40.7659 YYYY=            -40.7659 ZZZZ=           -220.2937 XXXY=              0.0000
 XXXZ=              0.0000 YYYX=              0.0000 YYYZ=              0.3754 ZZZX=              0.0000
 ZZZY=              0.0000 XXYY=            -13.5886 XXZZ=            -36.3527 YYZZ=            -36.3527
 XXYZ=             -0.3754 YYXZ=              0.0000 ZZXY=              0.0000
 N-N= 1.797064506883D+01 E-N=-7.286739381881D+02  KE= 2.902174219662D+02
 Symmetry A'   KE= 2.642069136578D+02
 Symmetry A"   KE= 2.601050830842D+01
 No NMR shielding tensors so no spin-rotation constants.
 Leave Link  601 at Tue Jun 23 13:23:50 2015, MaxMem=  2147483648 cpu:        12.9
 (Enter /usr/local/bin/g09/l9999.exe)
 1\1\GINC-CAT\SP\RSVWN5\6-31G(d)\H4Si1\HAICHEN\23-Jun-2015\0\\#p svwn5/
 6-31g* guess=core\\Title Card Required\\0,1\Si,0,0.,0.,0.\H,0,0.,0.,1.
 47\H,0,1.3859293,0.,-0.48999998\H,0,-0.69296463,-1.20024998,-0.4900000
 2\H,0,-1.88561815,3.26598629,-1.33333333\\Version=ES64L-G09RevD.01\Sta
 te=1-A1\HF=-290.4576884\RMSD=4.036e-09\Dipole=0.3275921,-0.5674061,0.2
 316426\Quadrupole=0.4411737,-1.3235212,0.8823475,1.5282708,-0.623914,1
 .0806506\PG=C03V [C3(H1Si1),3SGV(H1)]\\@


 THERE IS NO CURE FOR BIRTH AND DEATH SAVE TO ENJOY THE INTERVAL.

                               -- GEORGE SANTAYANA
 Job cpu time:       0 days  0 hours  3 minutes 44.0 seconds.
 File lengths (MBytes):  RWF=      5 Int=      0 D2E=      0 Chk=      1 Scr=      1
 Normal termination of Gaussian 09 at Tue Jun 23 13:23:52 2015.
