 Entering Gaussian System, Link 0=g09
 Input=uf4.gjf
 Output=uf4.log
 Initial command:
 /usr/local/bin/g09/l1.exe "/tmp/Gau-6663.inp" -scrdir="/tmp/"
 Default is to use a total of  12 processors:
                               12 via shared-memory
                                1 via Linda
 Entering Link 1 = /usr/local/bin/g09/l1.exe PID=      6664.
  
 Copyright (c) 1988,1990,1992,1993,1995,1998,2003,2009,2013,
            Gaussian, Inc.  All Rights Reserved.
  
 This is part of the Gaussian(R) 09 program.  It is based on
 the Gaussian(R) 03 system (copyright 2003, Gaussian, Inc.),
 the Gaussian(R) 98 system (copyright 1998, Gaussian, Inc.),
 the Gaussian(R) 94 system (copyright 1995, Gaussian, Inc.),
 the Gaussian 92(TM) system (copyright 1992, Gaussian, Inc.),
 the Gaussian 90(TM) system (copyright 1990, Gaussian, Inc.),
 the Gaussian 88(TM) system (copyright 1988, Gaussian, Inc.),
 the Gaussian 86(TM) system (copyright 1986, Carnegie Mellon
 University), and the Gaussian 82(TM) system (copyright 1983,
 Carnegie Mellon University). Gaussian is a federally registered
 trademark of Gaussian, Inc.
  
 This software contains proprietary and confidential information,
 including trade secrets, belonging to Gaussian, Inc.
  
 This software is provided under written license and may be
 used, copied, transmitted, or stored only in accord with that
 written license.
  
 The following legend is applicable only to US Government
 contracts under FAR:
  
                    RESTRICTED RIGHTS LEGEND
  
 Use, reproduction and disclosure by the US Government is
 subject to restrictions as set forth in subparagraphs (a)
 and (c) of the Commercial Computer Software - Restricted
 Rights clause in FAR 52.227-19.
  
 Gaussian, Inc.
 340 Quinnipiac St., Bldg. 40, Wallingford CT 06492
  
  
 ---------------------------------------------------------------
 Warning -- This program may not be used in any manner that
 competes with the business of Gaussian, Inc. or will provide
 assistance to any competitor of Gaussian, Inc.  The licensee
 of this program is prohibited from giving any competitor of
 Gaussian, Inc. access to this program.  By using this program,
 the user acknowledges that Gaussian, Inc. is engaged in the
 business of creating and licensing software in the field of
 computational chemistry and represents and warrants to the
 licensee that it is not a competitor of Gaussian, Inc. and that
 it will not use this program in any manner prohibited above.
 ---------------------------------------------------------------
  

 Cite this work as:
 Gaussian 09, Revision D.01,
 M. J. Frisch, G. W. Trucks, H. B. Schlegel, G. E. Scuseria, 
 M. A. Robb, J. R. Cheeseman, G. Scalmani, V. Barone, B. Mennucci, 
 G. A. Petersson, H. Nakatsuji, M. Caricato, X. Li, H. P. Hratchian, 
 A. F. Izmaylov, J. Bloino, G. Zheng, J. L. Sonnenberg, M. Hada, 
 M. Ehara, K. Toyota, R. Fukuda, J. Hasegawa, M. Ishida, T. Nakajima, 
 Y. Honda, O. Kitao, H. Nakai, T. Vreven, J. A. Montgomery, Jr., 
 J. E. Peralta, F. Ogliaro, M. Bearpark, J. J. Heyd, E. Brothers, 
 K. N. Kudin, V. N. Staroverov, T. Keith, R. Kobayashi, J. Normand, 
 K. Raghavachari, A. Rendell, J. C. Burant, S. S. Iyengar, J. Tomasi, 
 M. Cossi, N. Rega, J. M. Millam, M. Klene, J. E. Knox, J. B. Cross, 
 V. Bakken, C. Adamo, J. Jaramillo, R. Gomperts, R. E. Stratmann, 
 O. Yazyev, A. J. Austin, R. Cammi, C. Pomelli, J. W. Ochterski, 
 R. L. Martin, K. Morokuma, V. G. Zakrzewski, G. A. Voth, 
 P. Salvador, J. J. Dannenberg, S. Dapprich, A. D. Daniels, 
 O. Farkas, J. B. Foresman, J. V. Ortiz, J. Cioslowski, 
 and D. J. Fox, Gaussian, Inc., Wallingford CT, 2013.
 
 ******************************************
 Gaussian 09:  ES64L-G09RevD.01 24-Apr-2013
                18-Jun-2015 
 ******************************************
 %chk=uf4.chk
 --------------
 # b3lyp/genecp
 --------------
 1/38=1/1;
 2/12=2,17=6,18=5,40=1/2;
 3/5=7,11=2,16=1,17=8,25=1,30=1,74=-5/1,2,3;
 4//1;
 5/5=2,38=5/2;
 6/7=2,8=2,9=2,10=2,28=1/1;
 99/5=1,9=1/99;
 -------------------
 Title Card Required
 -------------------
 Symbolic Z-matrix:
 Charge =  0 Multiplicity = 1
 U                     0.        0.        0. 
 F                     0.        0.        1.98 
 F                     0.       -1.86676  -0.66 
 F                     1.61666   0.93338  -0.66 
 F                    -1.61666   0.93338  -0.66 
 
                          Input orientation:                          
 ---------------------------------------------------------------------
 Center     Atomic      Atomic             Coordinates (Angstroms)
 Number     Number       Type             X           Y           Z
 ---------------------------------------------------------------------
      1         92           0        0.000000    0.000000    0.000000
      2          9           0        0.000000    0.000000    1.980000
      3          9           0        0.000000   -1.866762   -0.660000
      4          9           0        1.616663    0.933381   -0.660000
      5          9           0       -1.616663    0.933381   -0.660000
 ---------------------------------------------------------------------
                    Distance matrix (angstroms):
                    1          2          3          4          5
     1  U    0.000000
     2  F    1.980000   0.000000
     3  F    1.980000   3.233326   0.000000
     4  F    1.980000   3.233326   3.233326   0.000000
     5  F    1.980000   3.233326   3.233326   3.233326   0.000000
 Stoichiometry    F4U
 Framework group  TD[O(U),4C3(F)]
 Deg. of freedom     1
 Full point group                 TD      NOp  24
 Largest Abelian subgroup         D2      NOp   4
 Largest concise Abelian subgroup D2      NOp   4
                         Standard orientation:                         
 ---------------------------------------------------------------------
 Center     Atomic      Atomic             Coordinates (Angstroms)
 Number     Number       Type             X           Y           Z
 ---------------------------------------------------------------------
      1         92           0        0.000000    0.000000    0.000000
      2          9           0        1.143154    1.143154    1.143154
      3          9           0       -1.143154   -1.143154    1.143154
      4          9           0        1.143154   -1.143154   -1.143154
      5          9           0       -1.143154    1.143154   -1.143154
 ---------------------------------------------------------------------
 Rotational constants (GHZ):      2.5444913      2.5444913      2.5444913
 General basis read from cards:  (5D, 7F)
 ======================================================================================================
                                       Pseudopotential Parameters
 ======================================================================================================
  Center     Atomic      Valence      Angular      Power
  Number     Number     Electrons     Momentum     of R      Exponent        Coefficient   SO-Coeffient
 ======================================================================================================
    1         92           14
                                      G and up 
                                                     0        4.5162725       -0.22527100    0.00000000
                                                     1      368.6876952      -53.78057010    0.00000000
                                                     2      112.7576708     -516.30520530    0.00000000
                                                     2       30.2032915     -202.67382220    0.00000000
                                                     2       10.2978355      -62.56440490    0.00000000
                                                     2        3.4910515      -21.55895590    0.00000000
                                                     2        1.2668391       -1.53905450    0.00000000
                                      S - G
                                                     0      257.3529442        2.61188160    0.00000000
                                                     1       83.1605428       81.23566570    0.00000000
                                                     2       29.7200513      353.24653640    0.00000000
                                                     2        6.2482132      311.92922340    0.00000000
                                                     2        4.1634672     -423.55257950    0.00000000
                                                     2        3.0001511      293.21608360    0.00000000
                                                     2        1.5600000      -21.34425520    0.00000000
                                                     2        0.8700000        1.66925480    0.00000000
                                      P - G
                                                     0      288.7298250        1.84143880    0.00000000
                                                     1       76.7838420       75.70547550    0.00000000
                                                     2       24.8252003      288.46016740    0.00000000
                                                     2        5.1248735      250.72894290    0.00000000
                                                     2        3.7603300     -318.89680610    0.00000000
                                                     2        2.9761706      160.08449240    0.00000000
                                                     2        1.9919017       33.78018910    0.00000000
                                                     2        0.9738832       -2.06999970    0.00000000
                                      D - G
                                                     0      350.4699407        2.90820640    0.00000000
                                                     1      166.7091301       74.35776280    0.00000000
                                                     2       85.8206119      587.11403290    0.00000000
                                                     2       26.9842255      317.25436790    0.00000000
                                                     2        7.1565592      102.84221170    0.00000000
                                                     2        1.2840855       22.42142780    0.00000000
                                      F - G
                                                     0      251.2670754        3.93503390    0.00000000
                                                     1      108.0109218       64.94341200    0.00000000
                                                     2      114.8021895      265.18047760    0.00000000
                                                     2       39.9112545      389.42840900    0.00000000
                                                     2       11.9039784      153.47672210    0.00000000
                                                     2        3.3850772       12.08074440    0.00000000
                                                     2        1.2677607       -1.35101380    0.00000000
    2          9
                                   No pseudopotential on this center.
    3          9
                                   No pseudopotential on this center.
    4          9
                                   No pseudopotential on this center.
    5          9
                                   No pseudopotential on this center.
 ======================================================================================================
 There are    20 symmetry adapted cartesian basis functions of A   symmetry.
 There are    20 symmetry adapted cartesian basis functions of B1  symmetry.
 There are    20 symmetry adapted cartesian basis functions of B2  symmetry.
 There are    20 symmetry adapted cartesian basis functions of B3  symmetry.
 There are    18 symmetry adapted basis functions of A   symmetry.
 There are    18 symmetry adapted basis functions of B1  symmetry.
 There are    18 symmetry adapted basis functions of B2  symmetry.
 There are    18 symmetry adapted basis functions of B3  symmetry.
    72 basis functions,   182 primitive gaussians,    80 cartesian basis functions
    25 alpha electrons       25 beta electrons
       nuclear repulsion energy       214.2400655056 Hartrees.
 NAtoms=    5 NActive=    5 NUniq=    2 SFac= 4.00D+00 NAtFMM=   60 NAOKFM=F Big=F
 Integral buffers will be    131072 words long.
 Raffenetti 2 integral format.
 Two-electron integral symmetry is turned on.
 One-electron integrals computed using PRISM.
  24 Symmetry operations used in ECPInt.
 ECPInt:  NShTT=     465 NPrTT=    3535 LenC2=     460 LenP2D=    2807.
 LDataN:  DoStor=T MaxTD1= 7 Len=  274
 NBasis=    72 RedAO= T EigKep=  2.66D-02  NBF=    18    18    18    18
 NBsUse=    72 1.00D-06 EigRej= -1.00D+00 NBFU=    18    18    18    18
 Defaulting to unpruned grid for atomic number  92.
 ExpMin= 4.00D-02 ExpMax= 1.00D+04 ExpMxC= 3.50D+02 IAcc=2 IRadAn=         4 AccDes= 0.00D+00
 Harris functional with IExCor=  402 and IRadAn=       4 diagonalized for initial guess.
 HarFok:  IExCor=  402 AccDes= 0.00D+00 IRadAn=         4 IDoV= 1 UseB2=F ITyADJ=14
 ICtDFT=  3500011 ScaDFX=  1.000000  1.000000  1.000000  1.000000
 Defaulting to unpruned grid for atomic number  92.
 Defaulting to unpruned grid for atomic number  92.
 Defaulting to unpruned grid for atomic number  92.
 Defaulting to unpruned grid for atomic number  92.
 Defaulting to unpruned grid for atomic number  92.
 Defaulting to unpruned grid for atomic number  92.
 Defaulting to unpruned grid for atomic number  92.
 Defaulting to unpruned grid for atomic number  92.
 Defaulting to unpruned grid for atomic number  92.
 Defaulting to unpruned grid for atomic number  92.
 Defaulting to unpruned grid for atomic number  92.
 Defaulting to unpruned grid for atomic number  92.
 FoFCou: FMM=F IPFlag=           0 FMFlag=      100000 FMFlg1=           0
         NFxFlg=           0 DoJE=T BraDBF=F KetDBF=T FulRan=T
         wScrn=  0.000000 ICntrl=     500 IOpCl=  0 I1Cent=   200000004 NGrid=           0
         NMat0=    1 NMatS0=      1 NMatT0=    0 NMatD0=    1 NMtDS0=    0 NMtDT0=    0
 Petite list used in FoFCou.
 Initial guess orbital symmetries:
       Occupied  (T2) (T2) (T2) (A1) (A1) (T2) (T2) (T2) (A1) (T2)
                 (T2) (T2) (T2) (T2) (T2) (E) (E) (A1) (T1) (T1)
                 (T1) (T2) (T2) (T2) (A1)
       Virtual   (T2) (T2) (T2) (T1) (T1) (T1) (T2) (T2) (T2) (A1)
                 (E) (E) (T2) (T2) (T2) (T2) (T2) (T2) (A1) (T2)
                 (T2) (T2) (E) (E) (T1) (T1) (T1) (T2) (T2) (T2)
                 (T2) (T2) (T2) (E) (E) (A1) (T2) (T2) (T2) (A1)
                 (T1) (T1) (T1) (T2) (T2) (T2) (A1)
 The electronic state of the initial guess is 1-A1.
 Keep R1 ints in memory in symmetry-blocked form, NReq=5490472.
 Requested convergence on RMS density matrix=1.00D-08 within 128 cycles.
 Requested convergence on MAX density matrix=1.00D-06.
 Requested convergence on             energy=1.00D-06.
 No special actions if energy rises.
 Defaulting to unpruned grid for atomic number  92.
 Defaulting to unpruned grid for atomic number  92.
 Defaulting to unpruned grid for atomic number  92.
 Defaulting to unpruned grid for atomic number  92.
 Defaulting to unpruned grid for atomic number  92.
 Defaulting to unpruned grid for atomic number  92.
 Defaulting to unpruned grid for atomic number  92.
 Defaulting to unpruned grid for atomic number  92.
 Defaulting to unpruned grid for atomic number  92.
 Defaulting to unpruned grid for atomic number  92.
 Defaulting to unpruned grid for atomic number  92.
 Defaulting to unpruned grid for atomic number  92.
 SCF Done:  E(RB3LYP) =  -451.178046307     A.U. after   14 cycles
            NFock= 14  Conv=0.10D-08     -V/T= 2.0703

 **********************************************************************

            Population analysis using the SCF density.

 **********************************************************************

 Orbital symmetries:
       Occupied  (T2) (T2) (T2) (A1) (A1) (T2) (T2) (T2) (A1) (T2)
                 (T2) (T2) (A1) (T2) (T2) (T2) (E) (E) (T1) (T1)
                 (T1) (T2) (T2) (T2) (A1)
       Virtual   (T2) (T2) (T2) (T1) (T1) (T1) (A1) (T2) (T2) (T2)
                 (E) (E) (T2) (T2) (T2) (T2) (T2) (T2) (A1) (T2)
                 (T2) (T2) (E) (E) (T1) (T1) (T1) (T2) (T2) (T2)
                 (T2) (T2) (T2) (E) (E) (A1) (T2) (T2) (T2) (A1)
                 (T1) (T1) (T1) (T2) (T2) (T2) (A1)
 The electronic state is 1-A1.
 Alpha  occ. eigenvalues --  -24.69296 -24.69296 -24.69296 -24.69296  -1.91720
 Alpha  occ. eigenvalues --   -1.22282  -1.22282  -1.22282  -1.16370  -0.92047
 Alpha  occ. eigenvalues --   -0.92047  -0.92047  -0.47686  -0.46885  -0.46885
 Alpha  occ. eigenvalues --   -0.46885  -0.45771  -0.45771  -0.44295  -0.44295
 Alpha  occ. eigenvalues --   -0.44295  -0.39418  -0.39418  -0.39418  -0.28694
 Alpha virt. eigenvalues --   -0.15874  -0.15874  -0.15874  -0.11827  -0.11827
 Alpha virt. eigenvalues --   -0.11827  -0.00413   0.02883   0.02883   0.02883
 Alpha virt. eigenvalues --    0.05733   0.05733   0.13372   0.13372   0.13372
 Alpha virt. eigenvalues --    0.35220   0.35220   0.35220   0.58300   0.61545
 Alpha virt. eigenvalues --    0.61545   0.61545   0.63890   0.63890   0.81211
 Alpha virt. eigenvalues --    0.81211   0.81211   0.93112   0.93112   0.93112
 Alpha virt. eigenvalues --    0.98225   0.98225   0.98225   1.04624   1.04624
 Alpha virt. eigenvalues --    1.47261   1.68553   1.68553   1.68553   1.74442
 Alpha virt. eigenvalues --    1.80503   1.80503   1.80503   2.31820   2.31820
 Alpha virt. eigenvalues --    2.31820   3.11663
          Condensed to atoms (all electrons):
               1          2          3          4          5
     1  U   11.799983   0.134325   0.134325   0.134325   0.134325
     2  F    0.134325   9.278792   0.000854   0.000854   0.000854
     3  F    0.134325   0.000854   9.278792   0.000854   0.000854
     4  F    0.134325   0.000854   0.000854   9.278792   0.000854
     5  F    0.134325   0.000854   0.000854   0.000854   9.278792
 Mulliken charges:
               1
     1  U    1.662715
     2  F   -0.415679
     3  F   -0.415679
     4  F   -0.415679
     5  F   -0.415679
 Sum of Mulliken charges =   0.00000
 Mulliken charges with hydrogens summed into heavy atoms:
               1
     1  U    1.662715
     2  F   -0.415679
     3  F   -0.415679
     4  F   -0.415679
     5  F   -0.415679
 Electronic spatial extent (au):  <R**2>=            626.0057
 Charge=              0.0000 electrons
 Dipole moment (field-independent basis, Debye):
    X=              0.0000    Y=              0.0000    Z=              0.0000  Tot=              0.0000
 Quadrupole moment (field-independent basis, Debye-Ang):
   XX=            -54.7006   YY=            -54.7006   ZZ=            -54.7006
   XY=              0.0000   XZ=              0.0000   YZ=              0.0000
 Traceless Quadrupole moment (field-independent basis, Debye-Ang):
   XX=              0.0000   YY=              0.0000   ZZ=              0.0000
   XY=              0.0000   XZ=              0.0000   YZ=              0.0000
 Octapole moment (field-independent basis, Debye-Ang**2):
  XXX=              0.0000  YYY=              0.0000  ZZZ=              0.0000  XYY=              0.0000
  XXY=              0.0000  XXZ=              0.0000  XZZ=              0.0000  YZZ=              0.0000
  YYZ=              0.0000  XYZ=            -14.3999
 Hexadecapole moment (field-independent basis, Debye-Ang**3):
 XXXX=           -221.4236 YYYY=           -221.4236 ZZZZ=           -221.4236 XXXY=              0.0000
 XXXZ=              0.0000 YYYX=              0.0000 YYYZ=              0.0000 ZZZX=              0.0000
 ZZZY=              0.0000 XXYY=            -84.6564 XXZZ=            -84.6564 YYZZ=            -84.6564
 XXYZ=              0.0000 YYXZ=              0.0000 ZZXY=              0.0000
 N-N= 2.142400655056D+02 E-N=-1.496565617569D+03  KE= 4.215322192228D+02
 Symmetry A    KE= 1.128629018635D+02
 Symmetry B1   KE= 1.028897724531D+02
 Symmetry B2   KE= 1.028897724531D+02
 Symmetry B3   KE= 1.028897724531D+02
 1\1\GINC-CAT\SP\RB3LYP\GenECP\F4U1\HAICHEN\18-Jun-2015\0\\# b3lyp/gene
 cp\\Title Card Required\\0,1\U,0,0.,0.,0.\F,0,0.,0.,1.98000001\F,0,0.,
 -1.86676192,-0.66\F,0,1.61666324,0.93338096,-0.66\F,0,-1.61666324,0.93
 338096,-0.66\\Version=ES64L-G09RevD.01\State=1-A1\HF=-451.1780463\RMSD
 =1.036e-09\Dipole=0.,0.,0.\Quadrupole=0.,0.,0.,0.,0.,0.\PG=TD [O(U1),4
 C3(F1)]\\@


 BLESSED ARE THOSE WHO NOUGHT EXPECT,
 FOR THEY SHALL NOT BE DISAPPOINTED..  WALCOT - ODE TO PITT
 Job cpu time:       0 days  0 hours  0 minutes 21.1 seconds.
 File lengths (MBytes):  RWF=      5 Int=      0 D2E=      0 Chk=      1 Scr=      1
 Normal termination of Gaussian 09 at Thu Jun 18 23:06:08 2015.
