 Entering Gaussian System, Link 0=g09
 Input=uf4test.gjf
 Output=uf4test.log
 Initial command:
 /usr/local/bin/g09/l1.exe "/tmp/Gau-16521.inp" -scrdir="/tmp/"
 Default is to use a total of  12 processors:
                               12 via shared-memory
                                1 via Linda
 Entering Link 1 = /usr/local/bin/g09/l1.exe PID=     16522.
  
 Copyright (c) 1988,1990,1992,1993,1995,1998,2003,2009,2013,
            Gaussian, Inc.  All Rights Reserved.
  
 This is part of the Gaussian(R) 09 program.  It is based on
 the Gaussian(R) 03 system (copyright 2003, Gaussian, Inc.),
 the Gaussian(R) 98 system (copyright 1998, Gaussian, Inc.),
 the Gaussian(R) 94 system (copyright 1995, Gaussian, Inc.),
 the Gaussian 92(TM) system (copyright 1992, Gaussian, Inc.),
 the Gaussian 90(TM) system (copyright 1990, Gaussian, Inc.),
 the Gaussian 88(TM) system (copyright 1988, Gaussian, Inc.),
 the Gaussian 86(TM) system (copyright 1986, Carnegie Mellon
 University), and the Gaussian 82(TM) system (copyright 1983,
 Carnegie Mellon University). Gaussian is a federally registered
 trademark of Gaussian, Inc.
  
 This software contains proprietary and confidential information,
 including trade secrets, belonging to Gaussian, Inc.
  
 This software is provided under written license and may be
 used, copied, transmitted, or stored only in accord with that
 written license.
  
 The following legend is applicable only to US Government
 contracts under FAR:
  
                    RESTRICTED RIGHTS LEGEND
  
 Use, reproduction and disclosure by the US Government is
 subject to restrictions as set forth in subparagraphs (a)
 and (c) of the Commercial Computer Software - Restricted
 Rights clause in FAR 52.227-19.
  
 Gaussian, Inc.
 340 Quinnipiac St., Bldg. 40, Wallingford CT 06492
  
  
 ---------------------------------------------------------------
 Warning -- This program may not be used in any manner that
 competes with the business of Gaussian, Inc. or will provide
 assistance to any competitor of Gaussian, Inc.  The licensee
 of this program is prohibited from giving any competitor of
 Gaussian, Inc. access to this program.  By using this program,
 the user acknowledges that Gaussian, Inc. is engaged in the
 business of creating and licensing software in the field of
 computational chemistry and represents and warrants to the
 licensee that it is not a competitor of Gaussian, Inc. and that
 it will not use this program in any manner prohibited above.
 ---------------------------------------------------------------
  

 Cite this work as:
 Gaussian 09, Revision D.01,
 M. J. Frisch, G. W. Trucks, H. B. Schlegel, G. E. Scuseria, 
 M. A. Robb, J. R. Cheeseman, G. Scalmani, V. Barone, B. Mennucci, 
 G. A. Petersson, H. Nakatsuji, M. Caricato, X. Li, H. P. Hratchian, 
 A. F. Izmaylov, J. Bloino, G. Zheng, J. L. Sonnenberg, M. Hada, 
 M. Ehara, K. Toyota, R. Fukuda, J. Hasegawa, M. Ishida, T. Nakajima, 
 Y. Honda, O. Kitao, H. Nakai, T. Vreven, J. A. Montgomery, Jr., 
 J. E. Peralta, F. Ogliaro, M. Bearpark, J. J. Heyd, E. Brothers, 
 K. N. Kudin, V. N. Staroverov, T. Keith, R. Kobayashi, J. Normand, 
 K. Raghavachari, A. Rendell, J. C. Burant, S. S. Iyengar, J. Tomasi, 
 M. Cossi, N. Rega, J. M. Millam, M. Klene, J. E. Knox, J. B. Cross, 
 V. Bakken, C. Adamo, J. Jaramillo, R. Gomperts, R. E. Stratmann, 
 O. Yazyev, A. J. Austin, R. Cammi, C. Pomelli, J. W. Ochterski, 
 R. L. Martin, K. Morokuma, V. G. Zakrzewski, G. A. Voth, 
 P. Salvador, J. J. Dannenberg, S. Dapprich, A. D. Daniels, 
 O. Farkas, J. B. Foresman, J. V. Ortiz, J. Cioslowski, 
 and D. J. Fox, Gaussian, Inc., Wallingford CT, 2013.
 
 ******************************************
 Gaussian 09:  ES64L-G09RevD.01 24-Apr-2013
                19-Jun-2015 
 ******************************************
 %chk=uf4test.chk
 ----------------------------------------------------------------------
 #p b3lyp/genecp guess=core symmetry=none population=full scf(maxcycle=
 1) iop(5/33=3) iop(3/33=1) iop(5/13=1)
 ----------------------------------------------------------------------
 1/38=1/1;
 2/12=2,15=3,17=6,18=5,40=1/2;
 3/5=7,11=2,16=1,17=8,25=1,30=1,33=1,74=-5/1,2,3;
 4/5=2/1;
 5/5=2,7=1,13=1,33=3,38=5/2;
 6/7=3,28=1/1;
 99/5=1,9=1/99;
 Leave Link    1 at Fri Jun 19 01:34:36 2015, MaxMem=           0 cpu:         0.6
 (Enter /usr/local/bin/g09/l101.exe)
 ----------------------------------------------------------------------
 iop(5/33=3): print fock; iop(3/33=1): print 1-e integrals; iop(5/13=1)
 : do not terminate when scf fails
 ----------------------------------------------------------------------
 Symbolic Z-matrix:
 Charge =  0 Multiplicity = 1
 U                     0.        0.        0. 
 F                     0.        0.        1.98 
 F                     0.       -1.86676  -0.66 
 F                     1.61666   0.93338  -0.66 
 F                    -1.61666   0.93338  -0.66 
 
 NAtoms=      5 NQM=        5 NQMF=       0 NMMI=      0 NMMIF=      0
                NMic=       0 NMicF=      0.
                    Isotopes and Nuclear Properties:
 (Nuclear quadrupole moments (NQMom) in fm**2, nuclear magnetic moments (NMagM)
  in nuclear magnetons)

  Atom         1           2           3           4           5
 IAtWgt=         238          19          19          19          19
 AtmWgt= 238.0508000  18.9984033  18.9984033  18.9984033  18.9984033
 NucSpn=           0           1           1           1           1
 AtZEff=   0.0000000   0.0000000   0.0000000   0.0000000   0.0000000
 NQMom=    0.0000000   0.0000000   0.0000000   0.0000000   0.0000000
 NMagM=    0.0000000   2.6288670   2.6288670   2.6288670   2.6288670
 AtZNuc=  92.0000000   9.0000000   9.0000000   9.0000000   9.0000000
 Leave Link  101 at Fri Jun 19 01:34:36 2015, MaxMem=  2147483648 cpu:         1.4
 (Enter /usr/local/bin/g09/l202.exe)
                          Input orientation:                          
 ---------------------------------------------------------------------
 Center     Atomic      Atomic             Coordinates (Angstroms)
 Number     Number       Type             X           Y           Z
 ---------------------------------------------------------------------
      1         92           0        0.000000    0.000000    0.000000
      2          9           0        0.000000    0.000000    1.980000
      3          9           0        0.000000   -1.866762   -0.660000
      4          9           0        1.616663    0.933381   -0.660000
      5          9           0       -1.616663    0.933381   -0.660000
 ---------------------------------------------------------------------
                    Distance matrix (angstroms):
                    1          2          3          4          5
     1  U    0.000000
     2  F    1.980000   0.000000
     3  F    1.980000   3.233326   0.000000
     4  F    1.980000   3.233326   3.233326   0.000000
     5  F    1.980000   3.233326   3.233326   3.233326   0.000000
 Symmetry turned off by external request.
 Stoichiometry    F4U
 Rotational constants (GHZ):      2.5444913      2.5444913      2.5444913
 Leave Link  202 at Fri Jun 19 01:34:36 2015, MaxMem=  2147483648 cpu:         0.0
 (Enter /usr/local/bin/g09/l301.exe)
 General basis read from cards:  (5D, 7F)
                         Coordinates in L301:                         
 ---------------------------------------------------------------------
 Center     Atomic      Atomic             Coordinates (Angstroms)
 Number     Number       Type             X           Y           Z
 ---------------------------------------------------------------------
      1         92           0        0.000000    0.000000    0.000000
      2          9           0        0.000000    0.000000    1.980000
      3          9           0        0.000000   -1.866762   -0.660000
      4          9           0        1.616663    0.933381   -0.660000
      5          9           0       -1.616663    0.933381   -0.660000
 ---------------------------------------------------------------------
 Centers:       2      3      4      5
 S 7 1.00
     Exponent=  9.9950000000D+03 Coefficients=  1.1600000000D-03
     Exponent=  1.5060000000D+03 Coefficients=  8.8700000000D-03
     Exponent=  3.5030000000D+02 Coefficients=  4.2380000000D-02
     Exponent=  1.0410000000D+02 Coefficients=  1.4292900000D-01
     Exponent=  3.4840000000D+01 Coefficients=  3.5537200000D-01
     Exponent=  1.2220000000D+01 Coefficients=  4.6208500000D-01
     Exponent=  4.3690000000D+00 Coefficients=  1.4084800000D-01
 S 2 1.00
     Exponent=  1.2220000000D+01 Coefficients= -1.4845200000D-01
     Exponent=  1.2080000000D+00 Coefficients=  1.0552700000D+00
 S 1 1.00
     Exponent=  3.6340000000D-01 Coefficients=  1.0000000000D+00
 P 4 1.00
     Exponent=  4.4360000000D+01 Coefficients=  2.0876000000D-02
     Exponent=  1.0080000000D+01 Coefficients=  1.3010700000D-01
     Exponent=  2.9960000000D+00 Coefficients=  3.9616600000D-01
     Exponent=  9.3830000000D-01 Coefficients=  6.2040400000D-01
 P 1 1.00
     Exponent=  2.7330000000D-01 Coefficients=  1.0000000000D+00
 ****
 Centers:       1
 S 4 1.00
     Exponent=  2.4440000000D+00 Coefficients=  2.8027800000D-01
     Exponent=  1.4330000000D+00 Coefficients= -1.3231100000D+00
     Exponent=  6.6770000000D-01 Coefficients=  1.3949990000D+00
     Exponent=  2.5560000000D-01 Coefficients=  4.5312300000D-01
 S 5 1.00
     Exponent=  2.4440000000D+00 Coefficients= -8.3754000000D-02
     Exponent=  1.4330000000D+00 Coefficients=  6.0823600000D-01
     Exponent=  6.6770000000D-01 Coefficients= -8.1843300000D-01
     Exponent=  2.5560000000D-01 Coefficients= -9.0575300000D-01
     Exponent=  1.2000000000D-01 Coefficients=  1.2340200000D+00
 S 1 1.00
     Exponent=  4.0000000000D-02 Coefficients=  1.0000000000D+00
 P 3 1.00
     Exponent=  1.1380000000D+00 Coefficients= -5.5815000000D-01
     Exponent=  6.8740000000D-01 Coefficients=  9.7017200000D-01
     Exponent=  2.5060000000D-01 Coefficients=  5.4190300000D-01
 P 4 1.00
     Exponent=  1.1380000000D+00 Coefficients=  2.2576300000D-01
     Exponent=  6.8740000000D-01 Coefficients= -4.2046900000D-01
     Exponent=  2.5060000000D-01 Coefficients= -5.4590300000D-01
     Exponent=  1.2000000000D-01 Coefficients=  7.4293600000D-01
 P 1 1.00
     Exponent=  4.0000000000D-02 Coefficients=  1.0000000000D+00
 D 1 1.00
     Exponent=  3.8260000000D-01 Coefficients=  1.0000000000D+00
 D 1 1.00
     Exponent=  1.4730000000D-01 Coefficients=  1.0000000000D+00
 F 2 1.00
     Exponent=  4.1130000000D+00 Coefficients=  2.1899300000D-01
     Exponent=  1.6970000000D+00 Coefficients=  4.5953900000D-01
 F 2 1.00
     Exponent=  6.7740000000D-01 Coefficients=  4.2169900000D-01
     Exponent=  2.5100000000D-01 Coefficients=  1.7906600000D-01
 ****
 ======================================================================================================
                                       Pseudopotential Parameters
 ======================================================================================================
  Center     Atomic      Valence      Angular      Power
  Number     Number     Electrons     Momentum     of R      Exponent        Coefficient   SO-Coeffient
 ======================================================================================================
 Centers:   1
    1         92           14
                                      G and up 
                                                     0        4.5162725       -0.22527100    0.00000000
                                                     1      368.6876952      -53.78057010    0.00000000
                                                     2      112.7576708     -516.30520530    0.00000000
                                                     2       30.2032915     -202.67382220    0.00000000
                                                     2       10.2978355      -62.56440490    0.00000000
                                                     2        3.4910515      -21.55895590    0.00000000
                                                     2        1.2668391       -1.53905450    0.00000000
                                      S - G
                                                     0      257.3529442        2.61188160    0.00000000
                                                     1       83.1605428       81.23566570    0.00000000
                                                     2       29.7200513      353.24653640    0.00000000
                                                     2        6.2482132      311.92922340    0.00000000
                                                     2        4.1634672     -423.55257950    0.00000000
                                                     2        3.0001511      293.21608360    0.00000000
                                                     2        1.5600000      -21.34425520    0.00000000
                                                     2        0.8700000        1.66925480    0.00000000
                                      P - G
                                                     0      288.7298250        1.84143880    0.00000000
                                                     1       76.7838420       75.70547550    0.00000000
                                                     2       24.8252003      288.46016740    0.00000000
                                                     2        5.1248735      250.72894290    0.00000000
                                                     2        3.7603300     -318.89680610    0.00000000
                                                     2        2.9761706      160.08449240    0.00000000
                                                     2        1.9919017       33.78018910    0.00000000
                                                     2        0.9738832       -2.06999970    0.00000000
                                      D - G
                                                     0      350.4699407        2.90820640    0.00000000
                                                     1      166.7091301       74.35776280    0.00000000
                                                     2       85.8206119      587.11403290    0.00000000
                                                     2       26.9842255      317.25436790    0.00000000
                                                     2        7.1565592      102.84221170    0.00000000
                                                     2        1.2840855       22.42142780    0.00000000
                                      F - G
                                                     0      251.2670754        3.93503390    0.00000000
                                                     1      108.0109218       64.94341200    0.00000000
                                                     2      114.8021895      265.18047760    0.00000000
                                                     2       39.9112545      389.42840900    0.00000000
                                                     2       11.9039784      153.47672210    0.00000000
                                                     2        3.3850772       12.08074440    0.00000000
                                                     2        1.2677607       -1.35101380    0.00000000
    2          9
                                   No pseudopotential on this center.
    3          9
                                   No pseudopotential on this center.
    4          9
                                   No pseudopotential on this center.
    5          9
                                   No pseudopotential on this center.
 ======================================================================================================
 FixB: optimizing general contractions.
 Ernie: Thresh=  0.10000D-02 Tol=  0.10000D-05 Strict=F.
 IA=     1 ShT= 0 ShC= 0 NL=   3 NS=   1.
 IA=     1 L=0 SC=0 ISt=    1 NBk=    2 NP=    5 IndPr=    0.
 DoElim1:  L=0 select primitive    1 from    1 using    2 C= 2.80D-01
 DoElim2:  L=0 select primitive    5 from    2 using    1 C= 1.23D+00
 Delete L=0 primitive    5 from    2 C=  0.00D+00.
 Delete L=0 primitive    1 from    1 C=  0.00D+00.
 IA=     1 L=0 SC=0 ISt=    0 NBk=    0 NP=    0 IndPr=    8.
 IA=     1 ShT= 1 ShC= 1 NL=   3 NS=   1.
 IA=     1 L=1 SC=1 ISt=    1 NBk=    2 NP=    4 IndPr=    0.
 DoElim1:  L=1 select primitive    1 from    1 using    2 C=-5.58D-01
 DoElim2:  L=1 select primitive    4 from    2 using    1 C= 7.43D-01
 Delete L=1 primitive    4 from    2 C=  0.00D+00.
 Delete L=1 primitive    1 from    1 C=  0.00D+00.
 IA=     1 L=1 SC=1 ISt=    0 NBk=    0 NP=    0 IndPr=    6.
 IA=     1 ShT= 2 ShC= 2 NL=   2 NS=   2.
 IA=     1 L=2 SC=2 ISt=    0 NBk=    0 NP=    0 IndPr=    0.
 IA=     1 ShT= 3 ShC= 3 NL=   2 NS=   0.
 IA=     1 L=3 SC=3 ISt=    1 NBk=    2 NP=    4 IndPr=    0.
 DoElim1:  L=3 select primitive    1 from    2 using    1 C= 2.19D-01
 DoElim2:  L=3 select primitive    3 from    1 using    2 C= 4.22D-01
 Delete L=3 primitive    2 from    2 C=  0.00D+00.
 Delete L=3 primitive    1 from    2 C=  0.00D+00.
 Delete L=3 primitive    4 from    1 C=  0.00D+00.
 Delete L=3 primitive    3 from    1 C=  0.00D+00.
 IA=     1 L=3 SC=3 ISt=    0 NBk=    0 NP=    0 IndPr=    4.
 IA=     2 ShT= 0 ShC= 0 NL=   3 NS=   1.
 IA=     2 L=0 SC=0 ISt=    1 NBk=    2 NP=    8 IndPr=    0.
 DoElim1:  L=0 select primitive    1 from    2 using    1 C= 1.16D-03
 DoElim2:  L=0 select primitive    8 from    1 using    2 C= 1.06D+00
 Delete L=0 primitive    7 from    2 C=  0.00D+00.
 Delete L=0 primitive    5 from    2 C=  0.00D+00.
 Delete L=0 primitive    4 from    2 C=  0.00D+00.
 Delete L=0 primitive    3 from    2 C=  0.00D+00.
 Delete L=0 primitive    2 from    2 C=  0.00D+00.
 Delete L=0 primitive    1 from    2 C=  0.00D+00.
 Delete L=0 primitive    8 from    1 C=  0.00D+00.
 IA=     2 L=0 SC=0 ISt=    0 NBk=    0 NP=    0 IndPr=    9.
 IA=     2 ShT= 1 ShC= 1 NL=   2 NS=   1.
 IA=     2 L=1 SC=1 ISt=    0 NBk=    0 NP=    0 IndPr=    0.
 IA=     3 ShT= 0 ShC= 0 NL=   3 NS=   1.
 IA=     3 L=0 SC=0 ISt=    1 NBk=    2 NP=    8 IndPr=    0.
 DoElim1:  L=0 select primitive    1 from    2 using    1 C= 1.16D-03
 DoElim2:  L=0 select primitive    8 from    1 using    2 C= 1.06D+00
 Delete L=0 primitive    7 from    2 C=  0.00D+00.
 Delete L=0 primitive    5 from    2 C=  0.00D+00.
 Delete L=0 primitive    4 from    2 C=  0.00D+00.
 Delete L=0 primitive    3 from    2 C=  0.00D+00.
 Delete L=0 primitive    2 from    2 C=  0.00D+00.
 Delete L=0 primitive    1 from    2 C=  0.00D+00.
 Delete L=0 primitive    8 from    1 C=  0.00D+00.
 IA=     3 L=0 SC=0 ISt=    0 NBk=    0 NP=    0 IndPr=    9.
 IA=     3 ShT= 1 ShC= 1 NL=   2 NS=   1.
 IA=     3 L=1 SC=1 ISt=    0 NBk=    0 NP=    0 IndPr=    0.
 IA=     4 ShT= 0 ShC= 0 NL=   3 NS=   1.
 IA=     4 L=0 SC=0 ISt=    1 NBk=    2 NP=    8 IndPr=    0.
 DoElim1:  L=0 select primitive    1 from    2 using    1 C= 1.16D-03
 DoElim2:  L=0 select primitive    8 from    1 using    2 C= 1.06D+00
 Delete L=0 primitive    7 from    2 C=  0.00D+00.
 Delete L=0 primitive    5 from    2 C=  0.00D+00.
 Delete L=0 primitive    4 from    2 C=  0.00D+00.
 Delete L=0 primitive    3 from    2 C=  0.00D+00.
 Delete L=0 primitive    2 from    2 C=  0.00D+00.
 Delete L=0 primitive    1 from    2 C=  0.00D+00.
 Delete L=0 primitive    8 from    1 C=  0.00D+00.
 IA=     4 L=0 SC=0 ISt=    0 NBk=    0 NP=    0 IndPr=    9.
 IA=     4 ShT= 1 ShC= 1 NL=   2 NS=   1.
 IA=     4 L=1 SC=1 ISt=    0 NBk=    0 NP=    0 IndPr=    0.
 IA=     5 ShT= 0 ShC= 0 NL=   3 NS=   1.
 IA=     5 L=0 SC=0 ISt=    1 NBk=    2 NP=    8 IndPr=    0.
 DoElim1:  L=0 select primitive    1 from    2 using    1 C= 1.16D-03
 DoElim2:  L=0 select primitive    8 from    1 using    2 C= 1.06D+00
 Delete L=0 primitive    7 from    2 C=  0.00D+00.
 Delete L=0 primitive    5 from    2 C=  0.00D+00.
 Delete L=0 primitive    4 from    2 C=  0.00D+00.
 Delete L=0 primitive    3 from    2 C=  0.00D+00.
 Delete L=0 primitive    2 from    2 C=  0.00D+00.
 Delete L=0 primitive    1 from    2 C=  0.00D+00.
 Delete L=0 primitive    8 from    1 C=  0.00D+00.
 IA=     5 L=0 SC=0 ISt=    0 NBk=    0 NP=    0 IndPr=    9.
 IA=     5 ShT= 1 ShC= 1 NL=   2 NS=   1.
 IA=     5 L=1 SC=1 ISt=    0 NBk=    0 NP=    0 IndPr=    0.
 Ernie:  2 primitive shells out of 84 were deleted.
 LdAtmC:  AtmChg=    14.000000     9.000000     9.000000     9.000000     9.000000
 AtZEff=      0.0000000     -6.7500000     -6.7500000     -6.7500000     -6.7500000
    72 basis functions,   182 primitive gaussians,    80 cartesian basis functions
    25 alpha electrons       25 beta electrons
       nuclear repulsion energy       214.2400651339 Hartrees.
 IS=     1 IAt=     1 ISR=     1 T=0 IP=      1 IndIP=      1 IndIPD=      0 C=  3.211234D-01  0.000000D+00                             NZ=T
 IS=     1 IAt=     1 ISR=     1 T=0 IP=      2 IndIP=      2 IndIPD=      1 C= -3.416628D-01  0.000000D+00                             NZ=T
 IS=     1 IAt=     1 ISR=     1 T=0 IP=      3 IndIP=      3 IndIPD=      2 C= -3.189741D-01  0.000000D+00                             NZ=T
 IS=     1 IAt=     1 ISR=     1 T=0 IP=      4 IndIP=      4 IndIPD=      3 C=  2.898048D-01  0.000000D+00                             NZ=T
 IS=     2 IAt=     1 ISR=     2 T=0 IP=      1 IndIP=      5 IndIPD=      0 C=  3.909483D-01  0.000000D+00                             NZ=T
 IS=     2 IAt=     1 ISR=     2 T=0 IP=      2 IndIP=      6 IndIPD=      1 C= -1.236616D+00  0.000000D+00                             NZ=T
 IS=     2 IAt=     1 ISR=     2 T=0 IP=      3 IndIP=      7 IndIPD=      2 C=  7.352996D-01  0.000000D+00                             NZ=T
 IS=     2 IAt=     1 ISR=     2 T=0 IP=      4 IndIP=      8 IndIPD=      3 C=  1.162361D-01  0.000000D+00                             NZ=T
 IS=     3 IAt=     1 ISR=     3 T=0 IP=      1 IndIP=      9 IndIPD=      0 C=  6.374632D-02  0.000000D+00                             NZ=T
 IS=     4 IAt=     1 ISR=     4 T=1 IP=      1 IndIP=     10 IndIPD=      0 C=  0.000000D+00 -5.067347D-02                             NZ=T
 IS=     4 IAt=     1 ISR=     4 T=1 IP=      2 IndIP=     11 IndIPD=      1 C=  0.000000D+00 -1.671993D-01                             NZ=T
 IS=     4 IAt=     1 ISR=     4 T=1 IP=      3 IndIP=     12 IndIPD=      2 C=  0.000000D+00  1.514508D-01                             NZ=T
 IS=     5 IAt=     1 ISR=     5 T=1 IP=      1 IndIP=     13 IndIPD=      0 C=  0.000000D+00 -9.323011D-01                             NZ=T
 IS=     5 IAt=     1 ISR=     5 T=1 IP=      2 IndIP=     14 IndIPD=      1 C=  0.000000D+00  8.629549D-01                             NZ=T
 IS=     5 IAt=     1 ISR=     5 T=1 IP=      3 IndIP=     15 IndIPD=      2 C=  0.000000D+00  1.365448D-01                             NZ=T
 IS=     6 IAt=     1 ISR=     6 T=1 IP=      1 IndIP=     16 IndIPD=      0 C=  0.000000D+00  2.549853D-02                             NZ=T
 IS=     7 IAt=     1 ISR=     7 T=2 IP=      1 IndIP=     17 IndIPD=      1 C=  0.000000D+00  0.000000D+00  3.063467D-01  0.000000D+00 NZ=T
 IS=     8 IAt=     1 ISR=     8 T=2 IP=      1 IndIP=     18 IndIPD=      2 C=  0.000000D+00  0.000000D+00  5.764535D-02  0.000000D+00 NZ=T
 IS=     9 IAt=     1 ISR=     9 T=3 IP=      1 IndIP=     19 IndIPD=      3 C=  0.000000D+00  0.000000D+00  0.000000D+00  1.242990D+01 NZ=T
 IS=     9 IAt=     1 ISR=     9 T=3 IP=      2 IndIP=     20 IndIPD=      4 C=  0.000000D+00  0.000000D+00  0.000000D+00  3.558663D+00 NZ=T
 IS=    10 IAt=     1 ISR=    10 T=3 IP=      1 IndIP=     21 IndIPD=      5 C=  0.000000D+00  0.000000D+00  0.000000D+00  4.730147D-01 NZ=T
 IS=    10 IAt=     1 ISR=    10 T=3 IP=      2 IndIP=     22 IndIPD=      6 C=  0.000000D+00  0.000000D+00  0.000000D+00  2.151540D-02 NZ=T
 IS=    11 IAt=     2 ISR=     1 T=0 IP=      1 IndIP=     23 IndIPD=      0 C=  8.264285D-01  0.000000D+00                             NZ=T
 IS=    11 IAt=     2 ISR=     1 T=0 IP=      2 IndIP=     24 IndIPD=      1 C=  1.528279D+00  0.000000D+00                             NZ=T
 IS=    11 IAt=     2 ISR=     1 T=0 IP=      3 IndIP=     25 IndIPD=      2 C=  2.445689D+00  0.000000D+00                             NZ=T
 IS=    11 IAt=     2 ISR=     1 T=0 IP=      4 IndIP=     26 IndIPD=      3 C=  3.319851D+00  0.000000D+00                             NZ=T
 IS=    11 IAt=     2 ISR=     1 T=0 IP=      5 IndIP=     27 IndIPD=      4 C=  3.632052D+00  0.000000D+00                             NZ=T
 IS=    11 IAt=     2 ISR=     1 T=0 IP=      6 IndIP=     28 IndIPD=      5 C=  2.152462D+00  0.000000D+00                             NZ=T
 IS=    11 IAt=     2 ISR=     1 T=0 IP=      7 IndIP=     29 IndIPD=      6 C=  3.033524D-01  0.000000D+00                             NZ=T
 IS=    12 IAt=     2 ISR=     2 T=0 IP=      1 IndIP=     30 IndIPD=      0 C= -6.915114D-01  0.000000D+00                             NZ=T
 IS=    12 IAt=     2 ISR=     2 T=0 IP=      2 IndIP=     31 IndIPD=      1 C=  8.666099D-01  0.000000D+00                             NZ=T
 IS=    13 IAt=     2 ISR=     3 T=0 IP=      1 IndIP=     32 IndIPD=      0 C=  3.335791D-01  0.000000D+00                             NZ=T
 IS=    14 IAt=     2 ISR=     4 T=1 IP=      1 IndIP=     33 IndIPD=      0 C=  0.000000D+00  3.406645D+00                             NZ=T
 IS=    14 IAt=     2 ISR=     4 T=1 IP=      2 IndIP=     34 IndIPD=      1 C=  0.000000D+00  3.330937D+00                             NZ=T
 IS=    14 IAt=     2 ISR=     4 T=1 IP=      3 IndIP=     35 IndIPD=      2 C=  0.000000D+00  2.225843D+00                             NZ=T
 IS=    14 IAt=     2 ISR=     4 T=1 IP=      4 IndIP=     36 IndIPD=      3 C=  0.000000D+00  8.166611D-01                             NZ=T
 IS=    15 IAt=     2 ISR=     5 T=1 IP=      1 IndIP=     37 IndIPD=      0 C=  0.000000D+00  2.816694D-01                             NZ=T
 IS=    16 IAt=     3 ISR=     1 T=0 IP=      1 IndIP=     38 IndIPD=      0 C=  8.264285D-01  0.000000D+00                             NZ=T
 IS=    16 IAt=     3 ISR=     1 T=0 IP=      2 IndIP=     39 IndIPD=      1 C=  1.528279D+00  0.000000D+00                             NZ=T
 IS=    16 IAt=     3 ISR=     1 T=0 IP=      3 IndIP=     40 IndIPD=      2 C=  2.445689D+00  0.000000D+00                             NZ=T
 IS=    16 IAt=     3 ISR=     1 T=0 IP=      4 IndIP=     41 IndIPD=      3 C=  3.319851D+00  0.000000D+00                             NZ=T
 IS=    16 IAt=     3 ISR=     1 T=0 IP=      5 IndIP=     42 IndIPD=      4 C=  3.632052D+00  0.000000D+00                             NZ=T
 IS=    16 IAt=     3 ISR=     1 T=0 IP=      6 IndIP=     43 IndIPD=      5 C=  2.152462D+00  0.000000D+00                             NZ=T
 IS=    16 IAt=     3 ISR=     1 T=0 IP=      7 IndIP=     44 IndIPD=      6 C=  3.033524D-01  0.000000D+00                             NZ=T
 IS=    17 IAt=     3 ISR=     2 T=0 IP=      1 IndIP=     45 IndIPD=      0 C= -6.915114D-01  0.000000D+00                             NZ=T
 IS=    17 IAt=     3 ISR=     2 T=0 IP=      2 IndIP=     46 IndIPD=      1 C=  8.666099D-01  0.000000D+00                             NZ=T
 IS=    18 IAt=     3 ISR=     3 T=0 IP=      1 IndIP=     47 IndIPD=      0 C=  3.335791D-01  0.000000D+00                             NZ=T
 IS=    19 IAt=     3 ISR=     4 T=1 IP=      1 IndIP=     48 IndIPD=      0 C=  0.000000D+00  3.406645D+00                             NZ=T
 IS=    19 IAt=     3 ISR=     4 T=1 IP=      2 IndIP=     49 IndIPD=      1 C=  0.000000D+00  3.330937D+00                             NZ=T
 IS=    19 IAt=     3 ISR=     4 T=1 IP=      3 IndIP=     50 IndIPD=      2 C=  0.000000D+00  2.225843D+00                             NZ=T
 IS=    19 IAt=     3 ISR=     4 T=1 IP=      4 IndIP=     51 IndIPD=      3 C=  0.000000D+00  8.166611D-01                             NZ=T
 IS=    20 IAt=     3 ISR=     5 T=1 IP=      1 IndIP=     52 IndIPD=      0 C=  0.000000D+00  2.816694D-01                             NZ=T
 IS=    21 IAt=     4 ISR=     1 T=0 IP=      1 IndIP=     53 IndIPD=      0 C=  8.264285D-01  0.000000D+00                             NZ=T
 IS=    21 IAt=     4 ISR=     1 T=0 IP=      2 IndIP=     54 IndIPD=      1 C=  1.528279D+00  0.000000D+00                             NZ=T
 IS=    21 IAt=     4 ISR=     1 T=0 IP=      3 IndIP=     55 IndIPD=      2 C=  2.445689D+00  0.000000D+00                             NZ=T
 IS=    21 IAt=     4 ISR=     1 T=0 IP=      4 IndIP=     56 IndIPD=      3 C=  3.319851D+00  0.000000D+00                             NZ=T
 IS=    21 IAt=     4 ISR=     1 T=0 IP=      5 IndIP=     57 IndIPD=      4 C=  3.632052D+00  0.000000D+00                             NZ=T
 IS=    21 IAt=     4 ISR=     1 T=0 IP=      6 IndIP=     58 IndIPD=      5 C=  2.152462D+00  0.000000D+00                             NZ=T
 IS=    21 IAt=     4 ISR=     1 T=0 IP=      7 IndIP=     59 IndIPD=      6 C=  3.033524D-01  0.000000D+00                             NZ=T
 IS=    22 IAt=     4 ISR=     2 T=0 IP=      1 IndIP=     60 IndIPD=      0 C= -6.915114D-01  0.000000D+00                             NZ=T
 IS=    22 IAt=     4 ISR=     2 T=0 IP=      2 IndIP=     61 IndIPD=      1 C=  8.666099D-01  0.000000D+00                             NZ=T
 IS=    23 IAt=     4 ISR=     3 T=0 IP=      1 IndIP=     62 IndIPD=      0 C=  3.335791D-01  0.000000D+00                             NZ=T
 IS=    24 IAt=     4 ISR=     4 T=1 IP=      1 IndIP=     63 IndIPD=      0 C=  0.000000D+00  3.406645D+00                             NZ=T
 IS=    24 IAt=     4 ISR=     4 T=1 IP=      2 IndIP=     64 IndIPD=      1 C=  0.000000D+00  3.330937D+00                             NZ=T
 IS=    24 IAt=     4 ISR=     4 T=1 IP=      3 IndIP=     65 IndIPD=      2 C=  0.000000D+00  2.225843D+00                             NZ=T
 IS=    24 IAt=     4 ISR=     4 T=1 IP=      4 IndIP=     66 IndIPD=      3 C=  0.000000D+00  8.166611D-01                             NZ=T
 IS=    25 IAt=     4 ISR=     5 T=1 IP=      1 IndIP=     67 IndIPD=      0 C=  0.000000D+00  2.816694D-01                             NZ=T
 IS=    26 IAt=     5 ISR=     1 T=0 IP=      1 IndIP=     68 IndIPD=      0 C=  8.264285D-01  0.000000D+00                             NZ=T
 IS=    26 IAt=     5 ISR=     1 T=0 IP=      2 IndIP=     69 IndIPD=      1 C=  1.528279D+00  0.000000D+00                             NZ=T
 IS=    26 IAt=     5 ISR=     1 T=0 IP=      3 IndIP=     70 IndIPD=      2 C=  2.445689D+00  0.000000D+00                             NZ=T
 IS=    26 IAt=     5 ISR=     1 T=0 IP=      4 IndIP=     71 IndIPD=      3 C=  3.319851D+00  0.000000D+00                             NZ=T
 IS=    26 IAt=     5 ISR=     1 T=0 IP=      5 IndIP=     72 IndIPD=      4 C=  3.632052D+00  0.000000D+00                             NZ=T
 IS=    26 IAt=     5 ISR=     1 T=0 IP=      6 IndIP=     73 IndIPD=      5 C=  2.152462D+00  0.000000D+00                             NZ=T
 IS=    26 IAt=     5 ISR=     1 T=0 IP=      7 IndIP=     74 IndIPD=      6 C=  3.033524D-01  0.000000D+00                             NZ=T
 IS=    27 IAt=     5 ISR=     2 T=0 IP=      1 IndIP=     75 IndIPD=      0 C= -6.915114D-01  0.000000D+00                             NZ=T
 IS=    27 IAt=     5 ISR=     2 T=0 IP=      2 IndIP=     76 IndIPD=      1 C=  8.666099D-01  0.000000D+00                             NZ=T
 IS=    28 IAt=     5 ISR=     3 T=0 IP=      1 IndIP=     77 IndIPD=      0 C=  3.335791D-01  0.000000D+00                             NZ=T
 IS=    29 IAt=     5 ISR=     4 T=1 IP=      1 IndIP=     78 IndIPD=      0 C=  0.000000D+00  3.406645D+00                             NZ=T
 IS=    29 IAt=     5 ISR=     4 T=1 IP=      2 IndIP=     79 IndIPD=      1 C=  0.000000D+00  3.330937D+00                             NZ=T
 IS=    29 IAt=     5 ISR=     4 T=1 IP=      3 IndIP=     80 IndIPD=      2 C=  0.000000D+00  2.225843D+00                             NZ=T
 IS=    29 IAt=     5 ISR=     4 T=1 IP=      4 IndIP=     81 IndIPD=      3 C=  0.000000D+00  8.166611D-01                             NZ=T
 IS=    30 IAt=     5 ISR=     5 T=1 IP=      1 IndIP=     82 IndIPD=      0 C=  0.000000D+00  2.816694D-01                             NZ=T
 IExCor=  402 DFT=T Ex+Corr=B3LYP ExCW=0 ScaHFX=  0.200000
 ScaDFX=  0.800000  0.720000  1.000000  0.810000 ScalE2=  1.000000  1.000000
 IRadAn=      0 IRanWt=     -1 IRanGd=            0 ICorTp=0 IEmpDi=  4
 NAtoms=    5 NActive=    5 NUniq=    5 SFac= 1.00D+00 NAtFMM=   60 NAOKFM=F Big=F
 Integral buffers will be    131072 words long.
 Raffenetti 2 integral format.
 Two-electron integral symmetry is turned off.
 Leave Link  301 at Fri Jun 19 01:34:36 2015, MaxMem=  2147483648 cpu:         1.5
 (Enter /usr/local/bin/g09/l302.exe)
 NPDir=0 NMtPBC=     1 NCelOv=     1 NCel=       1 NClECP=     1 NCelD=      1
         NCelK=      1 NCelE2=     1 NClLst=     1 CellRange=     0.0.
 One-electron integrals computed using PRISM.
 Entering OneElI...
 Calculate overlap and kinetic energy integrals
    NBasis =  72  MinDer = 0  MaxDer = 0
 Requested accuracy = 0.1000D-12
 PrsmSu:  NPrtUS=  12 ThrOK=T IAlg=1 NPAlg=2 LenDen=           0.
 Prism:   IPart=     0 DynPar=F LinDyn=F Incr=           1.
 PRISM was handed   178924407 working-precision words and   459 shell-pairs
 PRISM was handed   178924407 working-precision words and   459 shell-pairs
 PRISM was handed   178924407 working-precision words and   459 shell-pairs
 PRISM was handed   178924407 working-precision words and   459 shell-pairs
 PRISM was handed   178924407 working-precision words and   459 shell-pairs
 PRISM was handed   178924407 working-precision words and   459 shell-pairs
 PRISM was handed   178924407 working-precision words and   459 shell-pairs
 PRISM was handed   178924407 working-precision words and   459 shell-pairs
 PRISM was handed   178924407 working-precision words and   459 shell-pairs
 PRISM was handed   178924407 working-precision words and   459 shell-pairs
 PRISM was handed   178924407 working-precision words and   459 shell-pairs
 PRISM was handed   178924407 working-precision words and   459 shell-pairs
 IPart= 10 NShTot=          15 NBatch=          11 AvBLen=         1.4
 IPart= 11 NShTot=          15 NBatch=          11 AvBLen=         1.4
 IPart=  9 NShTot=          21 NBatch=          17 AvBLen=         1.2
 IPart=  8 NShTot=          21 NBatch=          17 AvBLen=         1.2
 IPart=  6 NShTot=          38 NBatch=          29 AvBLen=         1.3
 IPart=  5 NShTot=          41 NBatch=          31 AvBLen=         1.3
 IPart=  7 NShTot=          38 NBatch=          29 AvBLen=         1.3
 IPart=  4 NShTot=          41 NBatch=          31 AvBLen=         1.3
 IPart=  3 NShTot=          52 NBatch=          42 AvBLen=         1.2
 IPart=  2 NShTot=          58 NBatch=          46 AvBLen=         1.3
 IPart=  1 NShTot=          59 NBatch=          46 AvBLen=         1.3
 IPart=  0 NShTot=          60 NBatch=          46 AvBLen=         1.3
 PrSmSu:  NxtVal=             13.
 *** Overlap *** 
                1             2             3             4             5 
      1  0.100000D+01
      2  0.860121D-01  0.100000D+01
      3  0.762889D+00  0.485036D+00  0.100000D+01
      4  0.000000D+00  0.000000D+00  0.000000D+00  0.100000D+01
      5  0.000000D+00  0.000000D+00  0.000000D+00  0.000000D+00  0.100000D+01
      6  0.000000D+00  0.000000D+00  0.000000D+00  0.000000D+00  0.000000D+00
      7  0.000000D+00  0.000000D+00  0.000000D+00  0.402182D+00  0.000000D+00
      8  0.000000D+00  0.000000D+00  0.000000D+00  0.000000D+00  0.402182D+00
      9  0.000000D+00  0.000000D+00  0.000000D+00  0.000000D+00  0.000000D+00
     10  0.000000D+00  0.000000D+00  0.000000D+00  0.781271D+00  0.000000D+00
     11  0.000000D+00  0.000000D+00  0.000000D+00  0.000000D+00  0.781271D+00
     12  0.000000D+00  0.000000D+00  0.000000D+00  0.000000D+00  0.000000D+00
     13  0.000000D+00  0.000000D+00  0.000000D+00  0.000000D+00  0.000000D+00
     14  0.000000D+00  0.000000D+00  0.000000D+00  0.000000D+00  0.000000D+00
     15  0.000000D+00  0.000000D+00  0.000000D+00  0.000000D+00  0.000000D+00
     16  0.000000D+00  0.000000D+00  0.000000D+00  0.000000D+00  0.000000D+00
     17  0.000000D+00  0.000000D+00  0.000000D+00  0.000000D+00  0.000000D+00
     18  0.000000D+00  0.000000D+00  0.000000D+00  0.000000D+00  0.000000D+00
     19  0.000000D+00  0.000000D+00  0.000000D+00  0.000000D+00  0.000000D+00
     20  0.000000D+00  0.000000D+00  0.000000D+00  0.000000D+00  0.000000D+00
     21  0.000000D+00  0.000000D+00  0.000000D+00  0.000000D+00  0.000000D+00
     22  0.000000D+00  0.000000D+00  0.000000D+00  0.000000D+00  0.000000D+00
     23  0.000000D+00  0.000000D+00  0.000000D+00  0.000000D+00  0.000000D+00
     24  0.000000D+00  0.000000D+00  0.000000D+00  0.000000D+00  0.000000D+00
     25  0.000000D+00  0.000000D+00  0.000000D+00  0.000000D+00  0.000000D+00
     26  0.000000D+00  0.000000D+00  0.000000D+00  0.000000D+00  0.000000D+00
     27  0.000000D+00  0.000000D+00  0.000000D+00  0.000000D+00  0.000000D+00
     28  0.000000D+00  0.000000D+00  0.000000D+00  0.000000D+00  0.000000D+00
     29  0.000000D+00  0.000000D+00  0.000000D+00  0.000000D+00  0.000000D+00
     30  0.000000D+00  0.000000D+00  0.000000D+00  0.000000D+00  0.000000D+00
     31  0.000000D+00  0.000000D+00  0.000000D+00  0.000000D+00  0.000000D+00
     32  0.000000D+00  0.000000D+00  0.000000D+00  0.000000D+00  0.000000D+00
     33  0.000000D+00  0.000000D+00  0.000000D+00  0.000000D+00  0.000000D+00
     34  0.000000D+00  0.000000D+00  0.000000D+00  0.000000D+00  0.000000D+00
     35  0.000000D+00  0.000000D+00  0.000000D+00  0.000000D+00  0.000000D+00
     36  0.000000D+00  0.000000D+00  0.000000D+00  0.000000D+00  0.000000D+00
     37  0.260422D-01  0.207827D-02  0.211545D-01  0.000000D+00  0.000000D+00
     38  0.147333D+00  0.194234D-01  0.125041D+00  0.000000D+00  0.000000D+00
     39  0.285916D+00  0.879821D-01  0.279052D+00  0.000000D+00  0.000000D+00
     40  0.000000D+00  0.000000D+00  0.000000D+00  0.611991D-01  0.000000D+00
     41  0.000000D+00  0.000000D+00  0.000000D+00  0.000000D+00  0.611991D-01
     42 -0.696502D-01 -0.324641D-01 -0.313415D-01  0.000000D+00  0.000000D+00
     43  0.000000D+00  0.000000D+00  0.000000D+00  0.272278D+00  0.000000D+00
     44  0.000000D+00  0.000000D+00  0.000000D+00  0.000000D+00  0.272278D+00
     45 -0.209868D+00 -0.261734D+00 -0.167105D+00  0.000000D+00  0.000000D+00
     46  0.260422D-01  0.207827D-02  0.211545D-01  0.000000D+00 -0.468326D-01
     47  0.147333D+00  0.194234D-01  0.125041D+00  0.000000D+00 -0.251475D+00
     48  0.285916D+00  0.879821D-01  0.279052D+00  0.000000D+00 -0.454986D+00
     49  0.000000D+00  0.000000D+00  0.000000D+00  0.611991D-01  0.000000D+00
     50  0.656668D-01  0.306074D-01  0.295490D-01  0.000000D+00 -0.601598D-01
     51  0.232167D-01  0.108214D-01  0.104472D-01  0.000000D+00 -0.429068D-01
     52  0.000000D+00  0.000000D+00  0.000000D+00  0.272278D+00  0.000000D+00
     53  0.197866D+00  0.246765D+00  0.157548D+00  0.000000D+00 -0.160147D+00
     54  0.699561D-01  0.872446D-01  0.557015D-01  0.000000D+00 -0.152886D+00
     55  0.260422D-01  0.207827D-02  0.211545D-01  0.405582D-01  0.234163D-01
     56  0.147333D+00  0.194234D-01  0.125041D+00  0.217784D+00  0.125738D+00
     57  0.285916D+00  0.879821D-01  0.279052D+00  0.394030D+00  0.227493D+00
     58 -0.568692D-01 -0.265068D-01 -0.255902D-01 -0.298200D-01 -0.525499D-01
     59 -0.328334D-01 -0.153037D-01 -0.147745D-01 -0.525499D-01  0.308594D-01
     60  0.232167D-01  0.108214D-01  0.104472D-01  0.371584D-01  0.214534D-01
     61 -0.171357D+00 -0.213705D+00 -0.136440D+00 -0.520409D-01 -0.187246D+00
     62 -0.989329D-01 -0.123383D+00 -0.787739D-01 -0.187246D+00  0.164172D+00
     63  0.699561D-01  0.872446D-01  0.557015D-01  0.132403D+00  0.764428D-01
     64  0.260422D-01  0.207827D-02  0.211545D-01 -0.405582D-01  0.234163D-01
     65  0.147333D+00  0.194234D-01  0.125041D+00 -0.217784D+00  0.125738D+00
     66  0.285916D+00  0.879821D-01  0.279052D+00 -0.394030D+00  0.227493D+00
     67  0.568692D-01  0.265068D-01  0.255902D-01 -0.298200D-01  0.525499D-01
     68 -0.328334D-01 -0.153037D-01 -0.147745D-01  0.525499D-01  0.308594D-01
     69  0.232167D-01  0.108214D-01  0.104472D-01 -0.371584D-01  0.214534D-01
     70  0.171357D+00  0.213705D+00  0.136440D+00 -0.520409D-01  0.187246D+00
     71 -0.989329D-01 -0.123383D+00 -0.787739D-01  0.187246D+00  0.164172D+00
     72  0.699561D-01  0.872446D-01  0.557015D-01 -0.132403D+00  0.764428D-01
                6             7             8             9            10 
      6  0.100000D+01
      7  0.000000D+00  0.100000D+01
      8  0.000000D+00  0.000000D+00  0.100000D+01
      9  0.402182D+00  0.000000D+00  0.000000D+00  0.100000D+01
     10  0.000000D+00  0.304748D+00  0.000000D+00  0.000000D+00  0.100000D+01
     11  0.000000D+00  0.000000D+00  0.304748D+00  0.000000D+00  0.000000D+00
     12  0.781271D+00  0.000000D+00  0.000000D+00  0.304748D+00  0.000000D+00
     13  0.000000D+00  0.000000D+00  0.000000D+00  0.000000D+00  0.000000D+00
     14  0.000000D+00  0.000000D+00  0.000000D+00  0.000000D+00  0.000000D+00
     15  0.000000D+00  0.000000D+00  0.000000D+00  0.000000D+00  0.000000D+00
     16  0.000000D+00  0.000000D+00  0.000000D+00  0.000000D+00  0.000000D+00
     17  0.000000D+00  0.000000D+00  0.000000D+00  0.000000D+00  0.000000D+00
     18  0.000000D+00  0.000000D+00  0.000000D+00  0.000000D+00  0.000000D+00
     19  0.000000D+00  0.000000D+00  0.000000D+00  0.000000D+00  0.000000D+00
     20  0.000000D+00  0.000000D+00  0.000000D+00  0.000000D+00  0.000000D+00
     21  0.000000D+00  0.000000D+00  0.000000D+00  0.000000D+00  0.000000D+00
     22  0.000000D+00  0.000000D+00  0.000000D+00  0.000000D+00  0.000000D+00
     23  0.000000D+00  0.000000D+00  0.000000D+00  0.000000D+00  0.000000D+00
     24  0.000000D+00  0.000000D+00  0.000000D+00  0.000000D+00  0.000000D+00
     25  0.000000D+00  0.000000D+00  0.000000D+00  0.000000D+00  0.000000D+00
     26  0.000000D+00  0.000000D+00  0.000000D+00  0.000000D+00  0.000000D+00
     27  0.000000D+00  0.000000D+00  0.000000D+00  0.000000D+00  0.000000D+00
     28  0.000000D+00  0.000000D+00  0.000000D+00  0.000000D+00  0.000000D+00
     29  0.000000D+00  0.000000D+00  0.000000D+00  0.000000D+00  0.000000D+00
     30  0.000000D+00  0.000000D+00  0.000000D+00  0.000000D+00  0.000000D+00
     31  0.000000D+00  0.000000D+00  0.000000D+00  0.000000D+00  0.000000D+00
     32  0.000000D+00  0.000000D+00  0.000000D+00  0.000000D+00  0.000000D+00
     33  0.000000D+00  0.000000D+00  0.000000D+00  0.000000D+00  0.000000D+00
     34  0.000000D+00  0.000000D+00  0.000000D+00  0.000000D+00  0.000000D+00
     35  0.000000D+00  0.000000D+00  0.000000D+00  0.000000D+00  0.000000D+00
     36  0.000000D+00  0.000000D+00  0.000000D+00  0.000000D+00  0.000000D+00
     37  0.496734D-01  0.000000D+00  0.000000D+00  0.938766D-02  0.000000D+00
     38  0.266730D+00  0.000000D+00  0.000000D+00  0.695787D-01  0.000000D+00
     39  0.482586D+00  0.000000D+00  0.000000D+00  0.197383D+00  0.000000D+00
     40  0.000000D+00  0.165908D-01  0.000000D+00  0.000000D+00  0.418818D-01
     41  0.000000D+00  0.000000D+00  0.165908D-01  0.000000D+00  0.000000D+00
     42 -0.753296D-01  0.000000D+00  0.000000D+00 -0.882159D-01  0.000000D+00
     43  0.000000D+00  0.120733D+00  0.000000D+00  0.000000D+00  0.223303D+00
     44  0.000000D+00  0.000000D+00  0.120733D+00  0.000000D+00  0.000000D+00
     45 -0.214200D+00  0.000000D+00  0.000000D+00 -0.373615D+00  0.000000D+00
     46 -0.165578D-01  0.000000D+00 -0.885077D-02 -0.312922D-02  0.000000D+00
     47 -0.889099D-01  0.000000D+00 -0.655994D-01 -0.231929D-01  0.000000D+00
     48 -0.160862D+00  0.000000D+00 -0.186095D+00 -0.657944D-01  0.000000D+00
     49  0.000000D+00  0.165908D-01  0.000000D+00  0.000000D+00  0.418818D-01
     50 -0.429068D-01  0.000000D+00 -0.765708D-01 -0.329376D-01  0.000000D+00
     51  0.460293D-01  0.000000D+00 -0.329376D-01  0.494563D-02  0.000000D+00
     52  0.000000D+00  0.120733D+00  0.000000D+00  0.000000D+00  0.223303D+00
     53 -0.152886D+00  0.000000D+00 -0.318687D+00 -0.155358D+00  0.000000D+00
     54  0.218225D+00  0.000000D+00 -0.155358D+00  0.658054D-01  0.000000D+00
     55 -0.165578D-01  0.766499D-02  0.442539D-02 -0.312922D-02  0.257313D-01
     56 -0.889099D-01  0.568107D-01  0.327997D-01 -0.231929D-01  0.147790D+00
     57 -0.160862D+00  0.161163D+00  0.930473D-01 -0.657944D-01  0.307194D+00
     58  0.371584D-01 -0.532804D-01 -0.403401D-01  0.285248D-01  0.117597D-01
     59  0.214534D-01 -0.403401D-01 -0.669957D-02  0.164688D-01 -0.173910D-01
     60  0.460293D-01  0.285248D-01  0.164688D-01  0.494563D-02  0.122973D-01
     61  0.132403D+00 -0.208832D+00 -0.190274D+00  0.134544D+00  0.778573D-01
     62  0.764428D-01 -0.190274D+00  0.108779D-01  0.776792D-01 -0.839730D-01
     63  0.218225D+00  0.134544D+00  0.776792D-01  0.658054D-01  0.593779D-01
     64 -0.165578D-01 -0.766499D-02  0.442539D-02 -0.312922D-02 -0.257313D-01
     65 -0.889099D-01 -0.568107D-01  0.327997D-01 -0.231929D-01 -0.147790D+00
     66 -0.160862D+00 -0.161163D+00  0.930473D-01 -0.657944D-01 -0.307194D+00
     67 -0.371584D-01 -0.532804D-01  0.403401D-01 -0.285248D-01  0.117597D-01
     68  0.214534D-01  0.403401D-01 -0.669957D-02  0.164688D-01  0.173910D-01
     69  0.460293D-01 -0.285248D-01  0.164688D-01  0.494563D-02 -0.122973D-01
     70 -0.132403D+00 -0.208832D+00  0.190274D+00 -0.134544D+00  0.778573D-01
     71  0.764428D-01  0.190274D+00  0.108779D-01  0.776792D-01  0.839730D-01
     72  0.218225D+00 -0.134544D+00  0.776792D-01  0.658054D-01 -0.593779D-01
               11            12            13            14            15 
     11  0.100000D+01
     12  0.000000D+00  0.100000D+01
     13  0.000000D+00  0.000000D+00  0.100000D+01
     14  0.000000D+00  0.000000D+00  0.000000D+00  0.100000D+01
     15  0.000000D+00  0.000000D+00  0.000000D+00  0.000000D+00  0.100000D+01
     16  0.000000D+00  0.000000D+00  0.000000D+00  0.000000D+00  0.000000D+00
     17  0.000000D+00  0.000000D+00  0.000000D+00  0.000000D+00  0.000000D+00
     18  0.000000D+00  0.000000D+00  0.680902D+00  0.000000D+00  0.000000D+00
     19  0.000000D+00  0.000000D+00  0.000000D+00  0.680902D+00  0.000000D+00
     20  0.000000D+00  0.000000D+00  0.000000D+00  0.000000D+00  0.680902D+00
     21  0.000000D+00  0.000000D+00  0.000000D+00  0.000000D+00  0.000000D+00
     22  0.000000D+00  0.000000D+00  0.000000D+00  0.000000D+00  0.000000D+00
     23  0.000000D+00  0.000000D+00  0.000000D+00  0.000000D+00  0.000000D+00
     24  0.000000D+00  0.000000D+00  0.000000D+00  0.000000D+00  0.000000D+00
     25  0.000000D+00  0.000000D+00  0.000000D+00  0.000000D+00  0.000000D+00
     26  0.000000D+00  0.000000D+00  0.000000D+00  0.000000D+00  0.000000D+00
     27  0.000000D+00  0.000000D+00  0.000000D+00  0.000000D+00  0.000000D+00
     28  0.000000D+00  0.000000D+00  0.000000D+00  0.000000D+00  0.000000D+00
     29  0.000000D+00  0.000000D+00  0.000000D+00  0.000000D+00  0.000000D+00
     30  0.000000D+00  0.000000D+00  0.000000D+00  0.000000D+00  0.000000D+00
     31  0.000000D+00  0.000000D+00  0.000000D+00  0.000000D+00  0.000000D+00
     32  0.000000D+00  0.000000D+00  0.000000D+00  0.000000D+00  0.000000D+00
     33  0.000000D+00  0.000000D+00  0.000000D+00  0.000000D+00  0.000000D+00
     34  0.000000D+00  0.000000D+00  0.000000D+00  0.000000D+00  0.000000D+00
     35  0.000000D+00  0.000000D+00  0.000000D+00  0.000000D+00  0.000000D+00
     36  0.000000D+00  0.000000D+00  0.000000D+00  0.000000D+00  0.000000D+00
     37  0.000000D+00  0.315143D-01  0.127206D-01  0.000000D+00  0.000000D+00
     38  0.000000D+00  0.181005D+00  0.998994D-01  0.000000D+00  0.000000D+00
     39  0.000000D+00  0.376234D+00  0.215902D+00  0.000000D+00  0.000000D+00
     40  0.000000D+00  0.000000D+00  0.000000D+00  0.403913D-01  0.000000D+00
     41  0.418818D-01  0.000000D+00  0.000000D+00  0.000000D+00  0.403913D-01
     42  0.000000D+00 -0.330129D-02 -0.136192D+00  0.000000D+00  0.000000D+00
     43  0.000000D+00  0.000000D+00  0.000000D+00  0.199838D+00  0.000000D+00
     44  0.223303D+00  0.000000D+00  0.000000D+00  0.000000D+00  0.199838D+00
     45  0.000000D+00  0.513457D-02 -0.284265D+00  0.000000D+00  0.000000D+00
     46 -0.297120D-01 -0.105048D-01 -0.424021D-02  0.000000D+00  0.692424D-02
     47 -0.170653D+00 -0.603351D-01 -0.332998D-01  0.000000D+00  0.543783D-01
     48 -0.354717D+00 -0.125411D+00 -0.719674D-01  0.000000D+00  0.117522D+00
     49  0.000000D+00  0.000000D+00  0.000000D+00 -0.134638D-01  0.000000D+00
     50  0.171906D-02 -0.141997D-01 -0.354723D-01  0.000000D+00  0.803657D-01
     51 -0.141997D-01  0.368615D-01 -0.358613D-01  0.000000D+00 -0.490756D-02
     52  0.000000D+00  0.000000D+00  0.000000D+00 -0.666126D-01  0.000000D+00
     53  0.293755D-01 -0.685637D-01 -0.530765D-01  0.000000D+00  0.197695D+00
     54 -0.685637D-01  0.199062D+00 -0.134142D+00  0.000000D+00 -0.949622D-01
     55  0.148560D-01 -0.105048D-01 -0.424021D-02 -0.599657D-02 -0.346212D-02
     56  0.853267D-01 -0.603351D-01 -0.332998D-01 -0.470930D-01 -0.271892D-01
     57  0.177359D+00 -0.125411D+00 -0.719674D-01 -0.101777D+00 -0.587611D-01
     58 -0.173910D-01  0.122973D-01  0.307199D-01  0.569083D-01  0.406293D-01
     59  0.318411D-01  0.709984D-02  0.177362D-01  0.406293D-01  0.999359D-02
     60  0.709984D-02  0.368615D-01 -0.358613D-01  0.425007D-02  0.245378D-02
     61 -0.839730D-01  0.593779D-01  0.459656D-01  0.131618D+00  0.114448D+00
     62  0.174821D+00  0.342818D-01  0.265382D-01  0.114448D+00 -0.535806D-03
     63  0.342818D-01  0.199062D+00 -0.134142D+00  0.822397D-01  0.474811D-01
     64  0.148560D-01 -0.105048D-01 -0.424021D-02  0.599657D-02 -0.346212D-02
     65  0.853267D-01 -0.603351D-01 -0.332998D-01  0.470930D-01 -0.271892D-01
     66  0.177359D+00 -0.125411D+00 -0.719674D-01  0.101777D+00 -0.587611D-01
     67  0.173910D-01 -0.122973D-01 -0.307199D-01  0.569083D-01 -0.406293D-01
     68  0.318411D-01  0.709984D-02  0.177362D-01 -0.406293D-01  0.999359D-02
     69  0.709984D-02  0.368615D-01 -0.358613D-01 -0.425007D-02  0.245378D-02
     70  0.839730D-01 -0.593779D-01 -0.459656D-01  0.131618D+00 -0.114448D+00
     71  0.174821D+00  0.342818D-01  0.265382D-01 -0.114448D+00 -0.535806D-03
     72  0.342818D-01  0.199062D+00 -0.134142D+00 -0.822397D-01  0.474811D-01
               16            17            18            19            20 
     16  0.100000D+01
     17  0.000000D+00  0.100000D+01
     18  0.000000D+00  0.000000D+00  0.100000D+01
     19  0.000000D+00  0.000000D+00  0.000000D+00  0.100000D+01
     20  0.000000D+00  0.000000D+00  0.000000D+00  0.000000D+00  0.100000D+01
     21  0.680902D+00  0.000000D+00  0.000000D+00  0.000000D+00  0.000000D+00
     22  0.000000D+00  0.680902D+00  0.000000D+00  0.000000D+00  0.000000D+00
     23  0.000000D+00  0.000000D+00  0.000000D+00  0.000000D+00  0.000000D+00
     24  0.000000D+00  0.000000D+00  0.000000D+00  0.000000D+00  0.000000D+00
     25  0.000000D+00  0.000000D+00  0.000000D+00  0.000000D+00  0.000000D+00
     26  0.000000D+00  0.000000D+00  0.000000D+00  0.000000D+00  0.000000D+00
     27  0.000000D+00  0.000000D+00  0.000000D+00  0.000000D+00  0.000000D+00
     28  0.000000D+00  0.000000D+00  0.000000D+00  0.000000D+00  0.000000D+00
     29  0.000000D+00  0.000000D+00  0.000000D+00  0.000000D+00  0.000000D+00
     30  0.000000D+00  0.000000D+00  0.000000D+00  0.000000D+00  0.000000D+00
     31  0.000000D+00  0.000000D+00  0.000000D+00  0.000000D+00  0.000000D+00
     32  0.000000D+00  0.000000D+00  0.000000D+00  0.000000D+00  0.000000D+00
     33  0.000000D+00  0.000000D+00  0.000000D+00  0.000000D+00  0.000000D+00
     34  0.000000D+00  0.000000D+00  0.000000D+00  0.000000D+00  0.000000D+00
     35  0.000000D+00  0.000000D+00  0.000000D+00  0.000000D+00  0.000000D+00
     36  0.000000D+00  0.000000D+00  0.000000D+00  0.000000D+00  0.000000D+00
     37  0.000000D+00  0.000000D+00  0.584243D-01  0.000000D+00  0.000000D+00
     38  0.000000D+00  0.000000D+00  0.302931D+00  0.000000D+00  0.000000D+00
     39  0.000000D+00  0.000000D+00  0.479424D+00  0.000000D+00  0.000000D+00
     40  0.000000D+00  0.000000D+00  0.000000D+00  0.119604D+00  0.000000D+00
     41  0.000000D+00  0.000000D+00  0.000000D+00  0.000000D+00  0.119604D+00
     42  0.000000D+00  0.000000D+00 -0.112183D+00  0.000000D+00  0.000000D+00
     43  0.000000D+00  0.000000D+00  0.000000D+00  0.434481D+00  0.000000D+00
     44  0.000000D+00  0.000000D+00  0.000000D+00  0.000000D+00  0.434481D+00
     45  0.000000D+00  0.000000D+00 -0.170571D+00  0.000000D+00  0.000000D+00
     46 -0.979235D-02  0.000000D+00 -0.194748D-01  0.000000D+00  0.318021D-01
     47 -0.769026D-01  0.000000D+00 -0.100977D+00  0.000000D+00  0.164895D+00
     48 -0.166201D+00  0.000000D+00 -0.159808D+00  0.000000D+00  0.260965D+00
     49  0.000000D+00 -0.380813D-01  0.000000D+00 -0.398680D-01  0.000000D+00
     50 -0.946136D-01  0.000000D+00 -0.135542D-01  0.000000D+00  0.885805D-01
     51 -0.469147D-01  0.000000D+00 -0.738455D-01  0.000000D+00 -0.673503D-01
     52  0.000000D+00 -0.188409D+00  0.000000D+00 -0.144827D+00  0.000000D+00
     53 -0.185378D+00  0.000000D+00  0.252286D-01  0.000000D+00  0.200180D+00
     54 -0.132154D+00  0.000000D+00 -0.241928D+00  0.000000D+00 -0.287654D+00
     55  0.489618D-02  0.848043D-02 -0.194748D-01 -0.275415D-01 -0.159011D-01
     56  0.384513D-01  0.665996D-01 -0.100977D+00 -0.142803D+00 -0.824473D-01
     57  0.831007D-01  0.143935D+00 -0.159808D+00 -0.226003D+00 -0.130483D+00
     58 -0.244792D-01 -0.804805D-01  0.117383D-01  0.564684D-01  0.556198D-01
     59 -0.522143D-01 -0.244792D-01  0.677710D-02  0.556198D-01 -0.775585D-02
     60  0.234574D-01  0.406293D-01 -0.738455D-01  0.583270D-01  0.336751D-01
     61  0.131245D-02 -0.186136D+00 -0.218486D-01  0.113928D+00  0.149393D+00
     62 -0.187651D+00  0.131245D-02 -0.126143D-01  0.149393D+00 -0.585752D-01
     63  0.660768D-01  0.114448D+00 -0.241928D+00  0.249116D+00  0.143827D+00
     64  0.489618D-02 -0.848043D-02 -0.194748D-01  0.275415D-01 -0.159011D-01
     65  0.384513D-01 -0.665996D-01 -0.100977D+00  0.142803D+00 -0.824473D-01
     66  0.831007D-01 -0.143935D+00 -0.159808D+00  0.226003D+00 -0.130483D+00
     67  0.244792D-01 -0.804805D-01 -0.117383D-01  0.564684D-01 -0.556198D-01
     68 -0.522143D-01  0.244792D-01  0.677710D-02 -0.556198D-01 -0.775585D-02
     69  0.234574D-01 -0.406293D-01 -0.738455D-01 -0.583270D-01  0.336751D-01
     70 -0.131245D-02 -0.186136D+00  0.218486D-01  0.113928D+00 -0.149393D+00
     71 -0.187651D+00 -0.131245D-02 -0.126143D-01 -0.149393D+00 -0.585752D-01
     72  0.660768D-01 -0.114448D+00 -0.241928D+00 -0.249116D+00  0.143827D+00
               21            22            23            24            25 
     21  0.100000D+01
     22  0.000000D+00  0.100000D+01
     23  0.000000D+00  0.000000D+00  0.100000D+01
     24  0.000000D+00  0.000000D+00  0.000000D+00  0.100000D+01
     25  0.000000D+00  0.000000D+00  0.000000D+00  0.000000D+00  0.100000D+01
     26  0.000000D+00  0.000000D+00  0.000000D+00  0.000000D+00  0.000000D+00
     27  0.000000D+00  0.000000D+00  0.000000D+00  0.000000D+00  0.000000D+00
     28  0.000000D+00  0.000000D+00  0.000000D+00  0.000000D+00  0.000000D+00
     29  0.000000D+00  0.000000D+00  0.000000D+00  0.000000D+00  0.000000D+00
     30  0.000000D+00  0.000000D+00  0.455555D+00  0.000000D+00  0.000000D+00
     31  0.000000D+00  0.000000D+00  0.000000D+00  0.455555D+00  0.000000D+00
     32  0.000000D+00  0.000000D+00  0.000000D+00  0.000000D+00  0.455555D+00
     33  0.000000D+00  0.000000D+00  0.000000D+00  0.000000D+00  0.000000D+00
     34  0.000000D+00  0.000000D+00  0.000000D+00  0.000000D+00  0.000000D+00
     35  0.000000D+00  0.000000D+00  0.000000D+00  0.000000D+00  0.000000D+00
     36  0.000000D+00  0.000000D+00  0.000000D+00  0.000000D+00  0.000000D+00
     37  0.000000D+00  0.000000D+00  0.000000D+00  0.000000D+00  0.000000D+00
     38  0.000000D+00  0.000000D+00  0.675402D-03  0.000000D+00  0.000000D+00
     39  0.000000D+00  0.000000D+00  0.103639D-01  0.000000D+00  0.000000D+00
     40  0.000000D+00  0.000000D+00  0.000000D+00  0.676261D-03  0.000000D+00
     41  0.000000D+00  0.000000D+00  0.000000D+00  0.000000D+00  0.676261D-03
     42  0.000000D+00  0.000000D+00 -0.387584D-02  0.000000D+00  0.000000D+00
     43  0.000000D+00  0.000000D+00  0.000000D+00  0.134108D-01  0.000000D+00
     44  0.000000D+00  0.000000D+00  0.000000D+00  0.000000D+00  0.134108D-01
     45  0.000000D+00  0.000000D+00 -0.198728D-01  0.000000D+00  0.000000D+00
     46 -0.449750D-01  0.000000D+00  0.000000D+00  0.000000D+00  0.000000D+00
     47 -0.233196D+00  0.000000D+00  0.275164D-03  0.000000D+00  0.173308D-03
     48 -0.369061D+00  0.000000D+00  0.422235D-02  0.000000D+00  0.265939D-02
     49  0.000000D+00 -0.112764D+00  0.000000D+00 -0.751402D-04  0.000000D+00
     50 -0.688900D-01  0.000000D+00  0.154658D-02  0.000000D+00  0.762335D-03
     51 -0.642243D-01  0.000000D+00  0.362744D-03  0.000000D+00  0.827413D-03
     52  0.000000D+00 -0.409633D+00  0.000000D+00 -0.149009D-02  0.000000D+00
     53 -0.782813D-01  0.000000D+00  0.878036D-02  0.000000D+00  0.133085D-02
     54 -0.172504D+00  0.000000D+00 -0.545635D-03  0.000000D+00  0.115339D-01
     55  0.224875D-01  0.389495D-01  0.000000D+00  0.000000D+00  0.000000D+00
     56  0.116598D+00  0.201954D+00  0.275164D-03 -0.150089D-03 -0.866541D-04
     57  0.184530D+00  0.319616D+00  0.422235D-02 -0.230310D-02 -0.132970D-02
     58  0.189979D-01 -0.798584D-01 -0.133938D-02  0.552966D-03  0.362637D-03
     59 -0.101795D+00  0.189979D-01 -0.773290D-03  0.362637D-03  0.134229D-03
     60  0.321121D-01  0.556198D-01  0.362744D-03 -0.716561D-03 -0.413707D-03
     61  0.143479D+00 -0.161119D+00 -0.760402D-02  0.625613D-03  0.122150D-02
     62 -0.326795D+00  0.143479D+00 -0.439018D-02  0.122150D-02 -0.784856D-03
     63  0.862518D-01  0.149393D+00 -0.545635D-03 -0.998863D-02 -0.576694D-02
     64  0.224875D-01 -0.389495D-01  0.000000D+00  0.000000D+00  0.000000D+00
     65  0.116598D+00 -0.201954D+00  0.275164D-03  0.150089D-03 -0.866541D-04
     66  0.184530D+00 -0.319616D+00  0.422235D-02  0.230310D-02 -0.132970D-02
     67 -0.189979D-01 -0.798584D-01  0.133938D-02  0.552966D-03 -0.362637D-03
     68 -0.101795D+00 -0.189979D-01 -0.773290D-03 -0.362637D-03  0.134229D-03
     69  0.321121D-01 -0.556198D-01  0.362744D-03  0.716561D-03 -0.413707D-03
     70 -0.143479D+00 -0.161119D+00  0.760402D-02  0.625613D-03 -0.122150D-02
     71 -0.326795D+00 -0.143479D+00 -0.439018D-02 -0.122150D-02 -0.784856D-03
     72  0.862518D-01 -0.149393D+00 -0.545635D-03  0.998863D-02 -0.576694D-02
               26            27            28            29            30 
     26  0.100000D+01
     27  0.000000D+00  0.100000D+01
     28  0.000000D+00  0.000000D+00  0.100000D+01
     29  0.000000D+00  0.000000D+00  0.000000D+00  0.100000D+01
     30  0.000000D+00  0.000000D+00  0.000000D+00  0.000000D+00  0.100000D+01
     31  0.000000D+00  0.000000D+00  0.000000D+00  0.000000D+00  0.000000D+00
     32  0.000000D+00  0.000000D+00  0.000000D+00  0.000000D+00  0.000000D+00
     33  0.455555D+00  0.000000D+00  0.000000D+00  0.000000D+00  0.000000D+00
     34  0.000000D+00  0.455555D+00  0.000000D+00  0.000000D+00  0.000000D+00
     35  0.000000D+00  0.000000D+00  0.455555D+00  0.000000D+00  0.000000D+00
     36  0.000000D+00  0.000000D+00  0.000000D+00  0.455555D+00  0.000000D+00
     37  0.000000D+00  0.000000D+00  0.000000D+00  0.000000D+00  0.205766D-01
     38  0.000000D+00  0.000000D+00  0.000000D+00  0.000000D+00  0.120190D+00
     39  0.000000D+00  0.000000D+00  0.000000D+00  0.000000D+00  0.179836D+00
     40  0.000000D+00  0.000000D+00  0.000000D+00  0.000000D+00  0.000000D+00
     41  0.000000D+00  0.000000D+00  0.000000D+00  0.000000D+00  0.000000D+00
     42  0.000000D+00  0.000000D+00  0.000000D+00  0.000000D+00 -0.112156D+00
     43  0.000000D+00  0.000000D+00  0.000000D+00  0.000000D+00  0.000000D+00
     44  0.000000D+00  0.000000D+00  0.000000D+00  0.000000D+00  0.000000D+00
     45  0.000000D+00  0.000000D+00  0.000000D+00  0.000000D+00 -0.112447D+00
     46  0.000000D+00  0.000000D+00  0.000000D+00  0.000000D+00  0.838305D-02
     47  0.387529D-03  0.000000D+00  0.000000D+00  0.447480D-03  0.489664D-01
     48  0.594658D-02  0.000000D+00  0.000000D+00  0.686652D-02  0.732666D-01
     49  0.000000D+00  0.336037D-03 -0.582033D-03  0.000000D+00  0.000000D+00
     50  0.220869D-02  0.000000D+00  0.000000D+00  0.235636D-02  0.488401D-01
     51  0.424468D-03  0.000000D+00  0.000000D+00  0.103888D-02 -0.106055D-02
     52  0.000000D+00  0.666389D-02 -0.115422D-01  0.000000D+00  0.000000D+00
     53  0.129717D-01  0.000000D+00  0.000000D+00  0.111310D-01  0.606897D-01
     54 -0.248193D-02  0.000000D+00  0.000000D+00  0.801619D-02 -0.342216D-01
     55  0.000000D+00  0.000000D+00  0.000000D+00  0.000000D+00  0.838305D-02
     56 -0.193765D-03 -0.335610D-03  0.000000D+00  0.447480D-03  0.489664D-01
     57 -0.297329D-02 -0.514989D-02  0.000000D+00  0.686652D-02  0.732666D-01
     58  0.810881D-03  0.174052D-02  0.291017D-03 -0.204067D-02 -0.422968D-01
     59  0.804200D-03  0.810881D-03 -0.504056D-03 -0.117818D-02 -0.244201D-01
     60 -0.212234D-03 -0.367600D-03  0.000000D+00  0.103888D-02 -0.106055D-02
     61  0.273136D-02  0.113947D-01  0.577110D-02 -0.963975D-02 -0.525588D-01
     62  0.824084D-02  0.273136D-02 -0.999583D-02 -0.556551D-02 -0.303448D-01
     63  0.124097D-02  0.214942D-02  0.000000D+00  0.801619D-02 -0.342216D-01
     64  0.000000D+00  0.000000D+00  0.000000D+00  0.000000D+00  0.838305D-02
     65 -0.193765D-03  0.335610D-03  0.000000D+00  0.447480D-03  0.489664D-01
     66 -0.297329D-02  0.514989D-02  0.000000D+00  0.686652D-02  0.732666D-01
     67 -0.810881D-03  0.174052D-02  0.291017D-03  0.204067D-02  0.422968D-01
     68  0.804200D-03 -0.810881D-03  0.504056D-03 -0.117818D-02 -0.244201D-01
     69 -0.212234D-03  0.367600D-03  0.000000D+00  0.103888D-02 -0.106055D-02
     70 -0.273136D-02  0.113947D-01  0.577110D-02  0.963975D-02  0.525588D-01
     71  0.824084D-02 -0.273136D-02  0.999583D-02 -0.556551D-02 -0.303448D-01
     72  0.124097D-02 -0.214942D-02  0.000000D+00  0.801619D-02 -0.342216D-01
               31            32            33            34            35 
     31  0.100000D+01
     32  0.000000D+00  0.100000D+01
     33  0.000000D+00  0.000000D+00  0.100000D+01
     34  0.000000D+00  0.000000D+00  0.000000D+00  0.100000D+01
     35  0.000000D+00  0.000000D+00  0.000000D+00  0.000000D+00  0.100000D+01
     36  0.000000D+00  0.000000D+00  0.000000D+00  0.000000D+00  0.000000D+00
     37  0.000000D+00  0.000000D+00  0.000000D+00  0.000000D+00  0.000000D+00
     38  0.000000D+00  0.000000D+00  0.000000D+00  0.000000D+00  0.000000D+00
     39  0.000000D+00  0.000000D+00  0.000000D+00  0.000000D+00  0.000000D+00
     40  0.673419D-01  0.000000D+00  0.000000D+00  0.000000D+00  0.000000D+00
     41  0.000000D+00  0.673419D-01  0.000000D+00  0.000000D+00  0.000000D+00
     42  0.000000D+00  0.000000D+00  0.000000D+00  0.000000D+00  0.000000D+00
     43  0.204576D+00  0.000000D+00  0.000000D+00  0.000000D+00  0.000000D+00
     44  0.000000D+00  0.204576D+00  0.000000D+00  0.000000D+00  0.000000D+00
     45  0.000000D+00  0.000000D+00  0.000000D+00  0.000000D+00  0.000000D+00
     46  0.000000D+00  0.527995D-02  0.118063D-01  0.000000D+00  0.000000D+00
     47  0.000000D+00  0.308408D-01  0.689622D-01  0.000000D+00  0.000000D+00
     48  0.000000D+00  0.461460D-01  0.103186D+00  0.000000D+00  0.000000D+00
     49 -0.748243D-02  0.000000D+00  0.000000D+00  0.334624D-01 -0.579586D-01
     50  0.000000D+00  0.967445D-02  0.718264D-01  0.000000D+00  0.000000D+00
     51  0.000000D+00  0.589746D-01 -0.100978D-01  0.000000D+00  0.000000D+00
     52 -0.227307D-01  0.000000D+00  0.000000D+00  0.101655D+00 -0.176071D+00
     53  0.000000D+00 -0.258347D-01  0.947141D-01  0.000000D+00  0.000000D+00
     54  0.000000D+00  0.159633D+00 -0.743348D-01  0.000000D+00  0.000000D+00
     55 -0.457257D-02 -0.263998D-02 -0.590316D-02 -0.102246D-01  0.000000D+00
     56 -0.267089D-01 -0.154204D-01 -0.344811D-01 -0.597230D-01  0.000000D+00
     57 -0.399636D-01 -0.230730D-01 -0.515928D-01 -0.893614D-01  0.000000D+00
     58  0.538523D-02  0.742914D-02  0.166121D-01  0.622354D-01  0.289793D-01
     59  0.742914D-02 -0.319321D-02  0.430534D-01  0.166121D-01 -0.501937D-01
     60 -0.510735D-01 -0.294873D-01  0.504891D-02  0.874497D-02  0.000000D+00
     61 -0.250587D-01 -0.134407D-02 -0.300543D-02  0.964493D-01  0.880357D-01
     62 -0.134407D-02 -0.235067D-01  0.999197D-01 -0.300542D-02 -0.152482D+00
     63 -0.138246D+00 -0.798165D-01  0.371674D-01  0.643758D-01  0.000000D+00
     64  0.457257D-02 -0.263998D-02 -0.590316D-02  0.102246D-01  0.000000D+00
     65  0.267089D-01 -0.154204D-01 -0.344811D-01  0.597230D-01  0.000000D+00
     66  0.399636D-01 -0.230730D-01 -0.515928D-01  0.893614D-01  0.000000D+00
     67  0.538523D-02 -0.742914D-02 -0.166121D-01  0.622354D-01  0.289793D-01
     68 -0.742914D-02 -0.319321D-02  0.430534D-01 -0.166121D-01  0.501937D-01
     69  0.510735D-01 -0.294873D-01  0.504891D-02 -0.874497D-02  0.000000D+00
     70 -0.250587D-01  0.134407D-02  0.300543D-02  0.964493D-01  0.880357D-01
     71  0.134407D-02 -0.235067D-01  0.999197D-01  0.300542D-02  0.152482D+00
     72  0.138246D+00 -0.798165D-01  0.371674D-01 -0.643758D-01  0.000000D+00
               36            37            38            39            40 
     36  0.100000D+01
     37  0.000000D+00  0.100000D+01
     38  0.000000D+00  0.279098D+00  0.100000D+01
     39  0.000000D+00  0.183120D+00  0.788403D+00  0.100000D+01
     40  0.000000D+00  0.000000D+00  0.000000D+00  0.000000D+00  0.100000D+01
     41  0.000000D+00  0.000000D+00  0.000000D+00  0.000000D+00  0.000000D+00
     42  0.000000D+00  0.000000D+00  0.000000D+00  0.000000D+00  0.000000D+00
     43  0.000000D+00  0.000000D+00  0.000000D+00  0.000000D+00  0.494445D+00
     44  0.000000D+00  0.000000D+00  0.000000D+00  0.000000D+00  0.000000D+00
     45  0.000000D+00  0.000000D+00  0.000000D+00  0.000000D+00  0.000000D+00
     46  0.136328D-01  0.000000D+00  0.000000D+00  0.000000D+00  0.000000D+00
     47  0.796307D-01  0.000000D+00  0.000000D+00  0.240922D-04  0.000000D+00
     48  0.119148D+00  0.000000D+00  0.240922D-04  0.113234D-02  0.000000D+00
     49  0.000000D+00  0.000000D+00  0.000000D+00  0.000000D+00  0.000000D+00
     50  0.636184D-01  0.000000D+00  0.000000D+00  0.584126D-04  0.000000D+00
     51  0.429840D-01  0.000000D+00  0.000000D+00  0.826079D-04  0.000000D+00
     52  0.000000D+00  0.000000D+00  0.000000D+00  0.000000D+00  0.154927D-03
     53  0.506760D-01  0.274677D-04  0.524029D-03  0.613155D-02  0.000000D+00
     54  0.801673D-01  0.388452D-04  0.741090D-03  0.867132D-02  0.000000D+00
     55  0.136328D-01  0.000000D+00  0.000000D+00  0.000000D+00  0.000000D+00
     56  0.796307D-01  0.000000D+00  0.000000D+00  0.240922D-04  0.000000D+00
     57  0.119148D+00  0.000000D+00  0.240922D-04  0.113234D-02  0.505868D-04
     58 -0.550952D-01  0.000000D+00  0.000000D+00 -0.505868D-04  0.000000D+00
     59 -0.318092D-01  0.000000D+00  0.000000D+00 -0.292063D-04  0.000000D+00
     60  0.429840D-01  0.000000D+00  0.000000D+00  0.826079D-04  0.000000D+00
     61 -0.438867D-01 -0.237877D-04 -0.453823D-03 -0.531008D-02 -0.463233D-03
     62 -0.253380D-01 -0.137338D-04 -0.262015D-03 -0.306578D-02 -0.356895D-03
     63  0.801673D-01  0.388452D-04  0.741090D-03  0.867132D-02  0.100945D-02
     64  0.136328D-01  0.000000D+00  0.000000D+00  0.000000D+00  0.000000D+00
     65  0.796307D-01  0.000000D+00  0.000000D+00  0.240922D-04  0.000000D+00
     66  0.119148D+00  0.000000D+00  0.240922D-04  0.113234D-02 -0.505868D-04
     67  0.550952D-01  0.000000D+00  0.000000D+00  0.505868D-04  0.000000D+00
     68 -0.318092D-01  0.000000D+00  0.000000D+00 -0.292063D-04  0.000000D+00
     69  0.429840D-01  0.000000D+00  0.000000D+00  0.826079D-04  0.000000D+00
     70  0.438867D-01  0.237877D-04  0.453823D-03  0.531008D-02 -0.463233D-03
     71 -0.253380D-01 -0.137338D-04 -0.262015D-03 -0.306578D-02  0.356895D-03
     72  0.801673D-01  0.388452D-04  0.741090D-03  0.867132D-02 -0.100945D-02
               41            42            43            44            45 
     41  0.100000D+01
     42  0.000000D+00  0.100000D+01
     43  0.000000D+00  0.000000D+00  0.100000D+01
     44  0.494445D+00  0.000000D+00  0.000000D+00  0.100000D+01
     45  0.000000D+00  0.494445D+00  0.000000D+00  0.000000D+00  0.100000D+01
     46  0.000000D+00  0.000000D+00  0.000000D+00 -0.274677D-04 -0.388452D-04
     47  0.000000D+00  0.000000D+00  0.000000D+00 -0.524029D-03 -0.741090D-03
     48 -0.584126D-04 -0.826079D-04  0.000000D+00 -0.613155D-02 -0.867132D-02
     49  0.000000D+00  0.000000D+00  0.154927D-03  0.000000D+00  0.000000D+00
     50  0.000000D+00  0.000000D+00  0.000000D+00 -0.669287D-03 -0.116561D-02
     51  0.000000D+00  0.000000D+00  0.000000D+00 -0.116561D-02 -0.149350D-02
     52  0.000000D+00  0.000000D+00  0.608699D-02  0.000000D+00  0.000000D+00
     53 -0.669287D-03 -0.116561D-02  0.000000D+00 -0.146153D-01 -0.292774D-01
     54 -0.116561D-02 -0.149350D-02  0.000000D+00 -0.292774D-01 -0.353176D-01
     55  0.000000D+00  0.000000D+00  0.237877D-04  0.137338D-04 -0.388452D-04
     56  0.000000D+00  0.000000D+00  0.453823D-03  0.262015D-03 -0.741090D-03
     57  0.292063D-04 -0.826079D-04  0.531008D-02  0.306578D-02 -0.867132D-02
     58  0.000000D+00  0.000000D+00 -0.463233D-03 -0.356895D-03  0.100945D-02
     59  0.000000D+00  0.000000D+00 -0.356895D-03 -0.511266D-04  0.582807D-03
     60  0.000000D+00  0.000000D+00  0.100945D-02  0.582807D-03 -0.149350D-02
     61 -0.356895D-03  0.100945D-02 -0.943971D-02 -0.896435D-02  0.253550D-01
     62 -0.511266D-04  0.582807D-03 -0.896435D-02  0.911425D-03  0.146387D-01
     63  0.582807D-03 -0.149350D-02  0.253550D-01  0.146387D-01 -0.353176D-01
     64  0.000000D+00  0.000000D+00 -0.237877D-04  0.137338D-04 -0.388452D-04
     65  0.000000D+00  0.000000D+00 -0.453823D-03  0.262015D-03 -0.741090D-03
     66  0.292063D-04 -0.826079D-04 -0.531008D-02  0.306578D-02 -0.867132D-02
     67  0.000000D+00  0.000000D+00 -0.463233D-03  0.356895D-03 -0.100945D-02
     68  0.000000D+00  0.000000D+00  0.356895D-03 -0.511266D-04  0.582807D-03
     69  0.000000D+00  0.000000D+00 -0.100945D-02  0.582807D-03 -0.149350D-02
     70  0.356895D-03 -0.100945D-02 -0.943971D-02  0.896435D-02 -0.253550D-01
     71 -0.511266D-04  0.582807D-03  0.896435D-02  0.911425D-03  0.146387D-01
     72  0.582807D-03 -0.149350D-02 -0.253550D-01  0.146387D-01 -0.353176D-01
               46            47            48            49            50 
     46  0.100000D+01
     47  0.279098D+00  0.100000D+01
     48  0.183120D+00  0.788403D+00  0.100000D+01
     49  0.000000D+00  0.000000D+00  0.000000D+00  0.100000D+01
     50  0.000000D+00  0.000000D+00  0.000000D+00  0.000000D+00  0.100000D+01
     51  0.000000D+00  0.000000D+00  0.000000D+00  0.000000D+00  0.000000D+00
     52  0.000000D+00  0.000000D+00  0.000000D+00  0.494445D+00  0.000000D+00
     53  0.000000D+00  0.000000D+00  0.000000D+00  0.000000D+00  0.494445D+00
     54  0.000000D+00  0.000000D+00  0.000000D+00  0.000000D+00  0.000000D+00
     55  0.000000D+00  0.000000D+00  0.000000D+00  0.000000D+00  0.000000D+00
     56  0.000000D+00  0.000000D+00  0.240922D-04  0.000000D+00  0.000000D+00
     57  0.000000D+00  0.240922D-04  0.113234D-02  0.505868D-04  0.876190D-04
     58  0.000000D+00  0.000000D+00 -0.505868D-04  0.000000D+00  0.000000D+00
     59  0.000000D+00  0.000000D+00 -0.876190D-04  0.000000D+00  0.000000D+00
     60  0.000000D+00  0.000000D+00  0.000000D+00  0.000000D+00  0.000000D+00
     61 -0.237877D-04 -0.453823D-03 -0.531008D-02 -0.463233D-03 -0.107068D-02
     62 -0.412015D-04 -0.786044D-03 -0.919733D-02 -0.107068D-02 -0.169955D-02
     63  0.000000D+00  0.000000D+00  0.000000D+00  0.000000D+00  0.000000D+00
     64  0.000000D+00  0.000000D+00  0.000000D+00  0.000000D+00  0.000000D+00
     65  0.000000D+00  0.000000D+00  0.240922D-04  0.000000D+00  0.000000D+00
     66  0.000000D+00  0.240922D-04  0.113234D-02 -0.505868D-04  0.876190D-04
     67  0.000000D+00  0.000000D+00  0.505868D-04  0.000000D+00  0.000000D+00
     68  0.000000D+00  0.000000D+00 -0.876190D-04  0.000000D+00  0.000000D+00
     69  0.000000D+00  0.000000D+00  0.000000D+00  0.000000D+00  0.000000D+00
     70  0.237877D-04  0.453823D-03  0.531008D-02 -0.463233D-03  0.107068D-02
     71 -0.412015D-04 -0.786044D-03 -0.919733D-02  0.107068D-02 -0.169955D-02
     72  0.000000D+00  0.000000D+00  0.000000D+00  0.000000D+00  0.000000D+00
               51            52            53            54            55 
     51  0.100000D+01
     52  0.000000D+00  0.100000D+01
     53  0.000000D+00  0.000000D+00  0.100000D+01
     54  0.494445D+00  0.000000D+00  0.000000D+00  0.100000D+01
     55  0.000000D+00  0.237877D-04  0.412015D-04  0.000000D+00  0.100000D+01
     56  0.000000D+00  0.453823D-03  0.786044D-03  0.000000D+00  0.279098D+00
     57  0.000000D+00  0.531008D-02  0.919733D-02  0.000000D+00  0.183120D+00
     58  0.000000D+00 -0.463233D-03 -0.107068D-02  0.000000D+00  0.000000D+00
     59  0.000000D+00 -0.107068D-02 -0.169955D-02  0.000000D+00  0.000000D+00
     60  0.000000D+00  0.000000D+00  0.000000D+00  0.154927D-03  0.000000D+00
     61  0.000000D+00 -0.943971D-02 -0.268930D-01  0.000000D+00  0.000000D+00
     62  0.000000D+00 -0.268930D-01 -0.404931D-01  0.000000D+00  0.000000D+00
     63  0.154927D-03  0.000000D+00  0.000000D+00  0.608699D-02  0.000000D+00
     64  0.000000D+00 -0.237877D-04  0.412015D-04  0.000000D+00  0.000000D+00
     65  0.000000D+00 -0.453823D-03  0.786044D-03  0.000000D+00  0.000000D+00
     66  0.000000D+00 -0.531008D-02  0.919733D-02  0.000000D+00  0.000000D+00
     67  0.000000D+00 -0.463233D-03  0.107068D-02  0.000000D+00  0.000000D+00
     68  0.000000D+00  0.107068D-02 -0.169955D-02  0.000000D+00  0.000000D+00
     69  0.000000D+00  0.000000D+00  0.000000D+00  0.154927D-03  0.000000D+00
     70  0.000000D+00 -0.943971D-02  0.268930D-01  0.000000D+00  0.475754D-04
     71  0.000000D+00  0.268930D-01 -0.404931D-01  0.000000D+00  0.000000D+00
     72  0.154927D-03  0.000000D+00  0.000000D+00  0.608699D-02  0.000000D+00
               56            57            58            59            60 
     56  0.100000D+01
     57  0.788403D+00  0.100000D+01
     58  0.000000D+00  0.000000D+00  0.100000D+01
     59  0.000000D+00  0.000000D+00  0.000000D+00  0.100000D+01
     60  0.000000D+00  0.000000D+00  0.000000D+00  0.000000D+00  0.100000D+01
     61  0.000000D+00  0.000000D+00  0.494445D+00  0.000000D+00  0.000000D+00
     62  0.000000D+00  0.000000D+00  0.000000D+00  0.494445D+00  0.000000D+00
     63  0.000000D+00  0.000000D+00  0.000000D+00  0.000000D+00  0.494445D+00
     64  0.000000D+00  0.000000D+00  0.000000D+00  0.000000D+00  0.000000D+00
     65  0.000000D+00  0.240922D-04  0.000000D+00  0.000000D+00  0.000000D+00
     66  0.240922D-04  0.113234D-02 -0.101174D-03  0.000000D+00  0.000000D+00
     67  0.000000D+00  0.101174D-03  0.000000D+00  0.000000D+00  0.000000D+00
     68  0.000000D+00  0.000000D+00  0.000000D+00  0.000000D+00  0.000000D+00
     69  0.000000D+00  0.000000D+00  0.000000D+00  0.000000D+00  0.000000D+00
     70  0.907646D-03  0.106202D-01 -0.231771D-02  0.000000D+00  0.000000D+00
     71  0.000000D+00  0.000000D+00  0.000000D+00  0.154927D-03  0.000000D+00
     72  0.000000D+00  0.000000D+00  0.000000D+00  0.000000D+00  0.154927D-03
               61            62            63            64            65 
     61  0.100000D+01
     62  0.000000D+00  0.100000D+01
     63  0.000000D+00  0.000000D+00  0.100000D+01
     64 -0.475754D-04  0.000000D+00  0.000000D+00  0.100000D+01
     65 -0.907646D-03  0.000000D+00  0.000000D+00  0.279098D+00  0.100000D+01
     66 -0.106202D-01  0.000000D+00  0.000000D+00  0.183120D+00  0.788403D+00
     67 -0.231771D-02  0.000000D+00  0.000000D+00  0.000000D+00  0.000000D+00
     68  0.000000D+00  0.154927D-03  0.000000D+00  0.000000D+00  0.000000D+00
     69  0.000000D+00  0.000000D+00  0.154927D-03  0.000000D+00  0.000000D+00
     70 -0.560198D-01  0.000000D+00  0.000000D+00  0.000000D+00  0.000000D+00
     71  0.000000D+00  0.608699D-02  0.000000D+00  0.000000D+00  0.000000D+00
     72  0.000000D+00  0.000000D+00  0.608699D-02  0.000000D+00  0.000000D+00
               66            67            68            69            70 
     66  0.100000D+01
     67  0.000000D+00  0.100000D+01
     68  0.000000D+00  0.000000D+00  0.100000D+01
     69  0.000000D+00  0.000000D+00  0.000000D+00  0.100000D+01
     70  0.000000D+00  0.494445D+00  0.000000D+00  0.000000D+00  0.100000D+01
     71  0.000000D+00  0.000000D+00  0.494445D+00  0.000000D+00  0.000000D+00
     72  0.000000D+00  0.000000D+00  0.000000D+00  0.494445D+00  0.000000D+00
               71            72 
     71  0.100000D+01
     72  0.000000D+00  0.100000D+01
 *** Kinetic Energy *** 
                1             2             3             4             5 
      1  0.459394D+00
      2 -0.345619D+00  0.755045D+00
      3  0.559404D-01  0.517937D-01  0.600000D-01
      4  0.000000D+00  0.000000D+00  0.000000D+00  0.288030D+00
      5  0.000000D+00  0.000000D+00  0.000000D+00  0.000000D+00  0.288030D+00
      6  0.000000D+00  0.000000D+00  0.000000D+00  0.000000D+00  0.000000D+00
      7  0.000000D+00  0.000000D+00  0.000000D+00 -0.367274D-01  0.000000D+00
      8  0.000000D+00  0.000000D+00  0.000000D+00  0.000000D+00 -0.367274D-01
      9  0.000000D+00  0.000000D+00  0.000000D+00  0.000000D+00  0.000000D+00
     10  0.000000D+00  0.000000D+00  0.000000D+00  0.111021D+00  0.000000D+00
     11  0.000000D+00  0.000000D+00  0.000000D+00  0.000000D+00  0.111021D+00
     12  0.000000D+00  0.000000D+00  0.000000D+00  0.000000D+00  0.000000D+00
     13  0.000000D+00  0.000000D+00  0.000000D+00  0.000000D+00  0.000000D+00
     14  0.000000D+00  0.000000D+00  0.000000D+00  0.000000D+00  0.000000D+00
     15  0.000000D+00  0.000000D+00  0.000000D+00  0.000000D+00  0.000000D+00
     16  0.000000D+00  0.000000D+00  0.000000D+00  0.000000D+00  0.000000D+00
     17  0.000000D+00  0.000000D+00  0.000000D+00  0.000000D+00  0.000000D+00
     18  0.000000D+00  0.000000D+00  0.000000D+00  0.000000D+00  0.000000D+00
     19  0.000000D+00  0.000000D+00  0.000000D+00  0.000000D+00  0.000000D+00
     20  0.000000D+00  0.000000D+00  0.000000D+00  0.000000D+00  0.000000D+00
     21  0.000000D+00  0.000000D+00  0.000000D+00  0.000000D+00  0.000000D+00
     22  0.000000D+00  0.000000D+00  0.000000D+00  0.000000D+00  0.000000D+00
     23  0.000000D+00  0.000000D+00  0.000000D+00  0.000000D+00  0.000000D+00
     24  0.000000D+00  0.000000D+00  0.000000D+00  0.000000D+00  0.000000D+00
     25  0.000000D+00  0.000000D+00  0.000000D+00  0.000000D+00  0.000000D+00
     26  0.000000D+00  0.000000D+00  0.000000D+00  0.000000D+00  0.000000D+00
     27  0.000000D+00  0.000000D+00  0.000000D+00  0.000000D+00  0.000000D+00
     28  0.000000D+00  0.000000D+00  0.000000D+00  0.000000D+00  0.000000D+00
     29  0.000000D+00  0.000000D+00  0.000000D+00  0.000000D+00  0.000000D+00
     30  0.000000D+00  0.000000D+00  0.000000D+00  0.000000D+00  0.000000D+00
     31  0.000000D+00  0.000000D+00  0.000000D+00  0.000000D+00  0.000000D+00
     32  0.000000D+00  0.000000D+00  0.000000D+00  0.000000D+00  0.000000D+00
[...]
  54        5PZ         0.00032   0.00000   0.00000   0.00051   0.00000
  55 4   F  1S         -0.00060   0.00000   0.00000   0.00000   0.00000
  56        2S          0.00167   0.00000   0.00000   0.00000   0.00000
  57        3S          0.03058   0.00000   0.00000   0.00017   0.00000
  58        4PX         0.00067   0.00000   0.00000   0.00000   0.00000
  59        4PY         0.00022   0.00000   0.00000   0.00000   0.00000
  60        4PZ        -0.00010   0.00000   0.00000   0.00000   0.00000
  61        5PX         0.00063   0.00000   0.00000   0.00071   0.00000
  62        5PY         0.00021   0.00000   0.00000   0.00024   0.00000
  63        5PZ         0.00039   0.00000   0.00000   0.00050  -0.00008
  64 5   F  1S         -0.00060   0.00000   0.00000   0.00000   0.00000
  65        2S          0.00167   0.00000   0.00000   0.00000   0.00000
  66        3S          0.03058   0.00000   0.00000   0.00017   0.00000
  67        4PX         0.00067   0.00000   0.00000   0.00000   0.00000
  68        4PY         0.00022   0.00000   0.00000   0.00000   0.00000
  69        4PZ        -0.00010   0.00000   0.00000   0.00000   0.00000
  70        5PX         0.00063   0.00000   0.00000   0.00071   0.00000
  71        5PY         0.00021   0.00000   0.00000   0.00024   0.00000
  72        5PZ         0.00039   0.00000   0.00000   0.00050  -0.00008
                          41        42        43        44        45
  41        4PY         0.03020
  42        4PZ         0.00000   0.01436
  43        5PX         0.00000   0.00000   0.58486
  44        5PY         0.05149   0.00000   0.00000   0.43213
  45        5PZ         0.00000   0.00401   0.00000   0.00000   0.09086
  46 3   F  1S          0.00000   0.00000   0.00000   0.00000   0.00000
  47        2S          0.00000   0.00000   0.00000   0.00000   0.00001
  48        3S          0.00000   0.00000   0.00000   0.00002   0.00144
  49        4PX         0.00000   0.00000   0.00000   0.00000   0.00000
  50        4PY         0.00000   0.00000   0.00000   0.00002   0.00001
  51        4PZ         0.00000   0.00000   0.00000  -0.00010   0.00000
  52        5PX         0.00000   0.00000   0.00004   0.00000   0.00000
  53        5PY         0.00002   0.00001   0.00000   0.00205   0.00009
  54        5PZ        -0.00010   0.00000   0.00000  -0.01160   0.00004
  55 4   F  1S          0.00000   0.00000   0.00000   0.00000   0.00000
  56        2S          0.00000   0.00000   0.00001   0.00000   0.00001
  57        3S          0.00000   0.00000  -0.00113   0.00000   0.00144
  58        4PX         0.00000   0.00000   0.00000   0.00000   0.00000
  59        4PY         0.00000   0.00000   0.00000   0.00000   0.00000
  60        4PZ         0.00000   0.00000  -0.00008  -0.00003   0.00000
  61        5PX         0.00000   0.00000  -0.00038  -0.00002   0.00008
  62        5PY         0.00000   0.00000  -0.00017  -0.00013   0.00003
  63        5PZ        -0.00003   0.00000  -0.00902  -0.00291   0.00002
  64 5   F  1S          0.00000   0.00000   0.00000   0.00000   0.00000
  65        2S          0.00000   0.00000   0.00001   0.00000   0.00001
  66        3S          0.00000   0.00000  -0.00113   0.00000   0.00144
  67        4PX         0.00000   0.00000   0.00000   0.00000   0.00000
  68        4PY         0.00000   0.00000   0.00000   0.00000   0.00000
  69        4PZ         0.00000   0.00000  -0.00008  -0.00003   0.00000
  70        5PX         0.00000   0.00000  -0.00038  -0.00002   0.00008
  71        5PY         0.00000   0.00000  -0.00017  -0.00013   0.00003
  72        5PZ        -0.00003   0.00000  -0.00902  -0.00291   0.00002
                          46        47        48        49        50
  46 3   F  1S          2.06695
  47        2S         -0.00716   0.05643
  48        3S         -0.06008   0.14919   1.48207
  49        4PX         0.00000   0.00000   0.00000   0.03726
  50        4PY         0.00000   0.00000   0.00000   0.00000   0.01613
  51        4PZ         0.00000   0.00000   0.00000   0.00000   0.00000
  52        5PX         0.00000   0.00000   0.00000   0.06774   0.00000
  53        5PY         0.00000   0.00000   0.00000   0.00000   0.00931
  54        5PZ         0.00000   0.00000   0.00000   0.00000   0.00000
  55 4   F  1S          0.00000   0.00000   0.00000   0.00000   0.00000
  56        2S          0.00000   0.00000   0.00000   0.00000   0.00000
  57        3S          0.00000   0.00000   0.00017   0.00000   0.00000
  58        4PX         0.00000   0.00000   0.00000   0.00000   0.00000
  59        4PY         0.00000   0.00000   0.00000   0.00000   0.00000
  60        4PZ         0.00000   0.00000   0.00000   0.00000   0.00000
  61        5PX         0.00000   0.00000   0.00071   0.00000   0.00000
  62        5PY         0.00000   0.00000   0.00074  -0.00008  -0.00002
  63        5PZ         0.00000   0.00000   0.00000   0.00000   0.00000
  64 5   F  1S          0.00000   0.00000   0.00000   0.00000   0.00000
  65        2S          0.00000   0.00000   0.00000   0.00000   0.00000
  66        3S          0.00000   0.00000   0.00017   0.00000   0.00000
  67        4PX         0.00000   0.00000   0.00000   0.00000   0.00000
  68        4PY         0.00000   0.00000   0.00000   0.00000   0.00000
  69        4PZ         0.00000   0.00000   0.00000   0.00000   0.00000
  70        5PX         0.00000   0.00000   0.00071   0.00000   0.00000
  71        5PY         0.00000   0.00000   0.00074  -0.00008  -0.00002
  72        5PZ         0.00000   0.00000   0.00000   0.00000   0.00000
                          51        52        53        54        55
  51        4PZ         0.02845
  52        5PX         0.00000   0.58520
  53        5PY         0.00000   0.00000   0.12925
  54        5PZ         0.04618   0.00000   0.00000   0.39382
  55 4   F  1S          0.00000   0.00000   0.00000   0.00000   2.06726
  56        2S          0.00000   0.00001   0.00001   0.00000  -0.00684
  57        3S          0.00000  -0.00113   0.00144   0.00000  -0.06185
  58        4PX         0.00000   0.00000   0.00000   0.00000   0.00000
  59        4PY         0.00000  -0.00008  -0.00002   0.00000   0.00000
  60        4PZ         0.00000   0.00000   0.00000  -0.00001   0.00000
  61        5PX         0.00000  -0.00038   0.00005   0.00000   0.00000
  62        5PY         0.00000  -0.00919  -0.00184   0.00000   0.00000
  63        5PZ        -0.00001   0.00000   0.00000  -0.00116   0.00000
  64 5   F  1S          0.00000   0.00000   0.00000   0.00000   0.00000
  65        2S          0.00000   0.00001   0.00001   0.00000   0.00000
  66        3S          0.00000  -0.00113   0.00144   0.00000   0.00000
  67        4PX         0.00000   0.00000   0.00000   0.00000   0.00000
  68        4PY         0.00000  -0.00008  -0.00002   0.00000   0.00000
  69        4PZ         0.00000   0.00000   0.00000  -0.00001   0.00000
  70        5PX         0.00000  -0.00038   0.00005   0.00000   0.00000
  71        5PY         0.00000  -0.00919  -0.00184   0.00000   0.00000
  72        5PZ        -0.00001   0.00000   0.00000  -0.00116   0.00000
                          56        57        58        59        60
  56        2S          0.06066
  57        3S          0.12101   1.78588
  58        4PX         0.00000   0.00000   0.02524
  59        4PY         0.00000   0.00000   0.00000   0.02672
  60        4PZ         0.00000   0.00000   0.00000   0.00000   0.02847
  61        5PX         0.00000   0.00000   0.03703   0.00000   0.00000
  62        5PY         0.00000   0.00000   0.00000   0.04089   0.00000
  63        5PZ         0.00000   0.00000   0.00000   0.00000   0.04623
  64 5   F  1S          0.00000   0.00000   0.00000   0.00000   0.00000
  65        2S          0.00000   0.00000   0.00000   0.00000   0.00000
  66        3S          0.00000  -0.00018   0.00000   0.00000   0.00000
  67        4PX         0.00000   0.00000   0.00000   0.00000   0.00000
  68        4PY         0.00000   0.00000   0.00000   0.00000   0.00000
  69        4PZ         0.00000   0.00000   0.00000   0.00000   0.00000
  70        5PX         0.00003  -0.00126  -0.00015   0.00000   0.00000
  71        5PY         0.00000   0.00000   0.00000  -0.00001   0.00000
  72        5PZ         0.00000   0.00000   0.00000   0.00000  -0.00001
                          61        62        63        64        65
  61        5PX         0.42075
  62        5PY         0.00000   0.35887
  63        5PZ         0.00000   0.00000   0.39606
  64 5   F  1S          0.00000   0.00000   0.00000   2.06726
  65        2S          0.00003   0.00000   0.00000  -0.00684   0.06066
  66        3S         -0.00126   0.00000   0.00000  -0.06185   0.12101
  67        4PX        -0.00015   0.00000   0.00000   0.00000   0.00000
  68        4PY         0.00000  -0.00001   0.00000   0.00000   0.00000
  69        4PZ         0.00000   0.00000  -0.00001   0.00000   0.00000
  70        5PX        -0.01986   0.00000   0.00000   0.00000   0.00000
  71        5PY         0.00000  -0.00144   0.00000   0.00000   0.00000
  72        5PZ         0.00000   0.00000  -0.00116   0.00000   0.00000
                          66        67        68        69        70
  66        3S          1.78588
  67        4PX         0.00000   0.02524
  68        4PY         0.00000   0.00000   0.02672
  69        4PZ         0.00000   0.00000   0.00000   0.02847
  70        5PX         0.00000   0.03703   0.00000   0.00000   0.42075
  71        5PY         0.00000   0.00000   0.04089   0.00000   0.00000
  72        5PZ         0.00000   0.00000   0.00000   0.04623   0.00000
                          71        72
  71        5PY         0.35887
  72        5PZ         0.00000   0.39606
     Gross orbital populations:
                           1
   1 1   U  1S          0.69262
   2        2S          2.08712
   3        3S          1.20379
   4        4PX         0.96089
   5        4PY         0.52280
   6        4PZ         0.52296
   7        5PX         1.78092
   8        5PY         1.77704
   9        5PZ         1.77705
  10        6PX         2.12541
  11        6PY         2.13125
  12        6PZ         2.13100
  13        7D 0        0.16417
  14        7D+1        0.16001
  15        7D-1        0.16043
  16        7D+2        0.16279
  17        7D-2        0.16112
  18        8D 0        1.62483
  19        8D+1        1.64892
  20        8D-1        1.62845
  21        8D+2        1.62608
  22        8D-2        1.66743
  23        9F 0        0.04938
  24        9F+1        0.07702
  25        9F-1        0.04375
  26        9F+2        0.03054
  27        9F-2        0.19618
  28        9F+3        0.04721
  29        9F-3        0.04506
  30       10F 0        0.27225
  31       10F+1        0.46880
  32       10F-1        0.34349
  33       10F+2        0.19337
  34       10F-2        0.81693
  35       10F+3        0.38170
  36       10F-3        0.24929
  37 2   F  1S          1.99554
  38        2S          0.25410
  39        3S          1.16040
  40        4PX         0.12307
  41        4PY         0.09997
  42        4PZ         0.04031
  43        5PX         0.72308
  44        5PY         0.56584
  45        5PZ         0.09424
  46 3   F  1S          1.99554
  47        2S          0.25409
  48        3S          1.16065
  49        4PX         0.12312
  50        4PY         0.04696
  51        4PZ         0.09333
  52        5PX         0.72326
  53        5PY         0.14700
  54        5PZ         0.51288
  55 4   F  1S          1.99554
  56        2S          0.25173
  57        3S          1.14880
  58        4PX         0.07622
  59        4PY         0.08698
  60        4PZ         0.09351
  61        5PX         0.35505
  62        5PY         0.45743
  63        5PZ         0.51204
  64 5   F  1S          1.99554
  65        2S          0.25173
  66        3S          1.14880
  67        4PX         0.07622
  68        4PY         0.08698
  69        4PZ         0.09351
  70        5PX         0.35505
  71        5PY         0.45743
  72        5PZ         0.51204
          Condensed to atoms (all electrons):
               1          2          3          4          5
     1  U   31.171837  -0.121503  -0.121139  -0.498574  -0.498574
     2  F   -0.121503   5.206003  -0.006434  -0.010759  -0.010759
     3  F   -0.121139  -0.006434   5.205921  -0.010766  -0.010766
     4  F   -0.498574  -0.010759  -0.010766   5.522819  -0.025425
     5  F   -0.498574  -0.010759  -0.010766  -0.025425   5.522819
 Mulliken charges:
               1
     1  U  -15.932047
     2  F    3.943452
     3  F    3.943184
     4  F    4.022705
     5  F    4.022705
 Sum of Mulliken charges =   0.00000
 Mulliken charges with hydrogens summed into heavy atoms:
               1
     1  U  -15.932047
     2  F    3.943452
     3  F    3.943184
     4  F    4.022705
     5  F    4.022705
 Electronic spatial extent (au):  <R**2>=            796.6088
 Charge=              0.0000 electrons
 Dipole moment (field-independent basis, Debye):
    X=              0.0000    Y=              0.9426    Z=             -0.6607  Tot=              1.1511
 Quadrupole moment (field-independent basis, Debye-Ang):
   XX=           -135.6738   YY=           -128.3249   ZZ=           -129.5700
   XY=              0.0000   XZ=              0.0000   YZ=             -1.7755
 Traceless Quadrupole moment (field-independent basis, Debye-Ang):
   XX=             -4.4843   YY=              2.8647   ZZ=              1.6196
   XY=              0.0000   XZ=              0.0000   YZ=             -1.7755
 Octapole moment (field-independent basis, Debye-Ang**2):
  XXX=              0.0000  YYY=           -105.7940  ZZZ=            151.7710  XYY=              0.0000
  XXY=            112.2229  XXZ=            -79.3583  XZZ=              0.0000  YZZ=              1.0074
  YYZ=            -77.6549  XYZ=              0.0000
 Hexadecapole moment (field-independent basis, Debye-Ang**3):
 XXXX=          -1282.9142 YYYY=          -1185.4769 ZZZZ=          -1137.2658 XXXY=              0.0000
 XXXZ=              0.0000 YYYX=              0.0000 YYYZ=             70.6504 ZZZX=              0.0000
 ZZZY=             -2.7424 XXYY=           -411.9892 XXZZ=           -465.1207 YYZZ=           -447.6932
 XXYZ=            -75.1989 YYXZ=              0.0000 ZZXY=              0.0000
 N-N= 2.142400651339D+02 E-N=-1.296813409663D+03  KE= 3.412479262737D+02
 Orbital energies and kinetic energies (alpha):
                                 1                 2
   1         O               -21.400131         36.926239
   2         O               -21.400131         36.926239
   3         O               -21.400131         36.926239
   4         O               -21.400107         36.928101
   5         O                -1.257143          0.647029
   6         O                -0.539635          0.757187
   7         O                -0.539530          0.757169
   8         O                -0.539490          0.757256
   9         O                -0.179987          1.480226
  10         O                -0.128762          1.582841
  11         O                -0.128754          1.583309
  12         O                -0.128677          1.583487
  13         O                 0.014052          0.287222
  14         O                 0.014100          0.287110
  15         O                 0.014119          0.287072
  16         O                 0.019713          0.581115
  17         O                 0.020073          0.581083
  18         O                 0.132588          1.724608
  19         O                 0.251741          1.429537
  20         O                 0.251848          1.429447
  21         O                 0.251918          1.428431
  22         O                 0.286773          1.233398
  23         O                 0.286898          1.233605
  24         O                 0.286993          1.233712
  25         O                 0.320307          2.032301
  26         V                 0.320321          2.031392
  27         V                 0.320490          2.031666
  28         V                 0.347391          1.248800
  29         V                 0.424072          1.332889
  30         V                 0.424107          1.333382
  31         V                 0.424118          1.333235
  32         V                 0.530639          3.809909
  33         V                 0.538493          1.333305
  34         V                 0.538517          1.332764
  35         V                 0.538588          1.333296
  36         V                 0.567862          1.321142
  37         V                 0.567942          1.321126
  38         V                 0.662351          3.500489
  39         V                 0.662356          3.499730
  40         V                 0.662569          3.499016
  41         V                 0.702732          3.453142
  42         V                 0.702821          3.453357
  43         V                 0.702832          3.452526
  44         V                 0.942708          1.662883
  45         V                 0.942880          1.662832
  46         V                 1.027446          1.986280
  47         V                 1.027490          1.985961
  48         V                 1.027577          1.986077
  49         V                 1.519013          4.818683
  50         V                 1.881512          5.772440
  51         V                 1.881566          5.772250
  52         V                 1.881572          5.772224
  53         V                 1.935425          5.977862
  54         V                 1.935453          5.977533
  55         V                 1.935528          5.977099
  56         V                 1.966061          5.797378
  57         V                 1.966071          5.797140
  58         V                 1.966095          5.797155
  59         V                 2.000704          5.755929
  60         V                 2.000719          5.755922
  61         V                 2.286858          5.772554
  62         V                 2.555804          8.769984
  63         V                 2.556198          8.769878
  64         V                 2.556663          8.769319
  65         V                 2.658862          8.547915
  66         V                 2.760383         10.031046
  67         V                 2.761763         10.032929
  68         V                 2.761833         10.032036
  69         V                 3.132845          7.918540
  70         V                 3.132879          7.920451
  71         V                 3.133146          7.922298
  72         V                 3.875578          5.744322
 Total kinetic energy from orbitals= 3.412479262737D+02
 No NMR shielding tensors so no spin-rotation constants.
 Leave Link  601 at Fri Jun 19 01:34:37 2015, MaxMem=  2147483648 cpu:         2.0
 (Enter /usr/local/bin/g09/l9999.exe)

 Test job not archived.
 1\1\GINC-CAT\SP\RB3LYP\GenECP\F4U1\HAICHEN\19-Jun-2015\0\\#p b3lyp/gen
 ecp guess=core symmetry=none population=full scf(maxcycle=1) iop(5/33=
 3) iop(3/33=1) iop(5/13=1)\\iop(5/33=3): print fock; iop(3/33=1): prin
 t 1-e integrals; iop(5/13=1): do not terminate when scf fails\\0,1\U,0
 ,0.,0.,0.\F,0,0.,0.,1.98000001\F,0,0.,-1.86676192,-0.66\F,0,1.61666324
 ,0.93338096,-0.66\F,0,-1.61666324,0.93338096,-0.66\\Version=ES64L-G09R
 evD.01\HF=-425.3590277\RMSD=1.281e-01\Dipole=0.,0.3708513,-0.2599398\Q
 uadrupole=-3.3339383,2.1298139,1.2041244,0.,0.,-1.320025\PG=Unknown\\@


 LET US PLACE AT THE END OF EVERY CHAPTER.....THE
 TWO LETTERS USED BY THE ROMAN JUDGES WHEN THEY DID
 NOT UNDERSTAND A PLEADING.
 N. L. -NON LIQUET- IT IS NOT CLEAR.
                                              -- VOLTAIRE
 Job cpu time:       0 days  0 hours  0 minutes 16.1 seconds.
 File lengths (MBytes):  RWF=      5 Int=      0 D2E=      0 Chk=      1 Scr=      1
 Normal termination of Gaussian 09 at Fri Jun 19 01:34:37 2015.
